<?xml version="1.0"?>
<VTKFile type="UnstructuredGrid"  version="0.1"  >
<UnstructuredGrid>
<Piece  NumberOfPoints="729" NumberOfCells="3072">
<Points>
<DataArray  type="Float64"  NumberOfComponents="3"  format="ascii">0 0 0  0.125 0 0  0.25 0 0  0.375 0 0  0.5 0 0  0.625 0 0  0.75 0 0  0.875 0 0  1 0 0  0 0.125 0  0.125 0.125 0  0.25 0.125 0  0.375 0.125 0  0.5 0.125 0  0.625 0.125 0  0.75 0.125 0  0.875 0.125 0  1 0.125 0  0 0.25 0  0.125 0.25 0  0.25 0.25 0  0.375 0.25 0  0.5 0.25 0  0.625 0.25 0  0.75 0.25 0  0.875 0.25 0  1 0.25 0  0 0.375 0  0.125 0.375 0  0.25 0.375 0  0.375 0.375 0  0.5 0.375 0  0.625 0.375 0  0.75 0.375 0  0.875 0.375 0  1 0.375 0  0 0.5 0  0.125 0.5 0  0.25 0.5 0  0.375 0.5 0  0.5 0.5 0  0.625 0.5 0  0.75 0.5 0  0.875 0.5 0  1 0.5 0  0 0.625 0  0.125 0.625 0  0.25 0.625 0  0.375 0.625 0  0.5 0.625 0  0.625 0.625 0  0.75 0.625 0  0.875 0.625 0  1 0.625 0  0 0.75 0  0.125 0.75 0  0.25 0.75 0  0.375 0.75 0  0.5 0.75 0  0.625 0.75 0  0.75 0.75 0  0.875 0.75 0  1 0.75 0  0 0.875 0  0.125 0.875 0  0.25 0.875 0  0.375 0.875 0  0.5 0.875 0  0.625 0.875 0  0.75 0.875 0  0.875 0.875 0  1 0.875 0  0 1 0  0.125 1 0  0.25 1 0  0.375 1 0  0.5 1 0  0.625 1 0  0.75 1 0  0.875 1 0  1 1 0  0 0 0.125  0.125 0 0.125  0.25 0 0.125  0.375 0 0.125  0.5 0 0.125  0.625 0 0.125  0.75 0 0.125  0.875 0 0.125  1 0 0.125  0 0.125 0.125  0.125 0.125 0.125  0.25 0.125 0.125  0.375 0.125 0.125  0.5 0.125 0.125  0.625 0.125 0.125  0.75 0.125 0.125  0.875 0.125 0.125  1 0.125 0.125  0 0.25 0.125  0.125 0.25 0.125  0.25 0.25 0.125  0.375 0.25 0.125  0.5 0.25 0.125  0.625 0.25 0.125  0.75 0.25 0.125  0.875 0.25 0.125  1 0.25 0.125  0 0.375 0.125  0.125 0.375 0.125  0.25 0.375 0.125  0.375 0.375 0.125  0.5 0.375 0.125  0.625 0.375 0.125  0.75 0.375 0.125  0.875 0.375 0.125  1 0.375 0.125  0 0.5 0.125  0.125 0.5 0.125  0.25 0.5 0.125  0.375 0.5 0.125  0.5 0.5 0.125  0.625 0.5 0.125  0.75 0.5 0.125  0.875 0.5 0.125  1 0.5 0.125  0 0.625 0.125  0.125 0.625 0.125  0.25 0.625 0.125  0.375 0.625 0.125  0.5 0.625 0.125  0.625 0.625 0.125  0.75 0.625 0.125  0.875 0.625 0.125  1 0.625 0.125  0 0.75 0.125  0.125 0.75 0.125  0.25 0.75 0.125  0.375 0.75 0.125  0.5 0.75 0.125  0.625 0.75 0.125  0.75 0.75 0.125  0.875 0.75 0.125  1 0.75 0.125  0 0.875 0.125  0.125 0.875 0.125  0.25 0.875 0.125  0.375 0.875 0.125  0.5 0.875 0.125  0.625 0.875 0.125  0.75 0.875 0.125  0.875 0.875 0.125  1 0.875 0.125  0 1 0.125  0.125 1 0.125  0.25 1 0.125  0.375 1 0.125  0.5 1 0.125  0.625 1 0.125  0.75 1 0.125  0.875 1 0.125  1 1 0.125  0 0 0.25  0.125 0 0.25  0.25 0 0.25  0.375 0 0.25  0.5 0 0.25  0.625 0 0.25  0.75 0 0.25  0.875 0 0.25  1 0 0.25  0 0.125 0.25  0.125 0.125 0.25  0.25 0.125 0.25  0.375 0.125 0.25  0.5 0.125 0.25  0.625 0.125 0.25  0.75 0.125 0.25  0.875 0.125 0.25  1 0.125 0.25  0 0.25 0.25  0.125 0.25 0.25  0.25 0.25 0.25  0.375 0.25 0.25  0.5 0.25 0.25  0.625 0.25 0.25  0.75 0.25 0.25  0.875 0.25 0.25  1 0.25 0.25  0 0.375 0.25  0.125 0.375 0.25  0.25 0.375 0.25  0.375 0.375 0.25  0.5 0.375 0.25  0.625 0.375 0.25  0.75 0.375 0.25  0.875 0.375 0.25  1 0.375 0.25  0 0.5 0.25  0.125 0.5 0.25  0.25 0.5 0.25  0.375 0.5 0.25  0.5 0.5 0.25  0.625 0.5 0.25  0.75 0.5 0.25  0.875 0.5 0.25  1 0.5 0.25  0 0.625 0.25  0.125 0.625 0.25  0.25 0.625 0.25  0.375 0.625 0.25  0.5 0.625 0.25  0.625 0.625 0.25  0.75 0.625 0.25  0.875 0.625 0.25  1 0.625 0.25  0 0.75 0.25  0.125 0.75 0.25  0.25 0.75 0.25  0.375 0.75 0.25  0.5 0.75 0.25  0.625 0.75 0.25  0.75 0.75 0.25  0.875 0.75 0.25  1 0.75 0.25  0 0.875 0.25  0.125 0.875 0.25  0.25 0.875 0.25  0.375 0.875 0.25  0.5 0.875 0.25  0.625 0.875 0.25  0.75 0.875 0.25  0.875 0.875 0.25  1 0.875 0.25  0 1 0.25  0.125 1 0.25  0.25 1 0.25  0.375 1 0.25  0.5 1 0.25  0.625 1 0.25  0.75 1 0.25  0.875 1 0.25  1 1 0.25  0 0 0.375  0.125 0 0.375  0.25 0 0.375  0.375 0 0.375  0.5 0 0.375  0.625 0 0.375  0.75 0 0.375  0.875 0 0.375  1 0 0.375  0 0.125 0.375  0.125 0.125 0.375  0.25 0.125 0.375  0.375 0.125 0.375  0.5 0.125 0.375  0.625 0.125 0.375  0.75 0.125 0.375  0.875 0.125 0.375  1 0.125 0.375  0 0.25 0.375  0.125 0.25 0.375  0.25 0.25 0.375  0.375 0.25 0.375  0.5 0.25 0.375  0.625 0.25 0.375  0.75 0.25 0.375  0.875 0.25 0.375  1 0.25 0.375  0 0.375 0.375  0.125 0.375 0.375  0.25 0.375 0.375  0.375 0.375 0.375  0.5 0.375 0.375  0.625 0.375 0.375  0.75 0.375 0.375  0.875 0.375 0.375  1 0.375 0.375  0 0.5 0.375  0.125 0.5 0.375  0.25 0.5 0.375  0.375 0.5 0.375  0.5 0.5 0.375  0.625 0.5 0.375  0.75 0.5 0.375  0.875 0.5 0.375  1 0.5 0.375  0 0.625 0.375  0.125 0.625 0.375  0.25 0.625 0.375  0.375 0.625 0.375  0.5 0.625 0.375  0.625 0.625 0.375  0.75 0.625 0.375  0.875 0.625 0.375  1 0.625 0.375  0 0.75 0.375  0.125 0.75 0.375  0.25 0.75 0.375  0.375 0.75 0.375  0.5 0.75 0.375  0.625 0.75 0.375  0.75 0.75 0.375  0.875 0.75 0.375  1 0.75 0.375  0 0.875 0.375  0.125 0.875 0.375  0.25 0.875 0.375  0.375 0.875 0.375  0.5 0.875 0.375  0.625 0.875 0.375  0.75 0.875 0.375  0.875 0.875 0.375  1 0.875 0.375  0 1 0.375  0.125 1 0.375  0.25 1 0.375  0.375 1 0.375  0.5 1 0.375  0.625 1 0.375  0.75 1 0.375  0.875 1 0.375  1 1 0.375  0 0 0.5  0.125 0 0.5  0.25 0 0.5  0.375 0 0.5  0.5 0 0.5  0.625 0 0.5  0.75 0 0.5  0.875 0 0.5  1 0 0.5  0 0.125 0.5  0.125 0.125 0.5  0.25 0.125 0.5  0.375 0.125 0.5  0.5 0.125 0.5  0.625 0.125 0.5  0.75 0.125 0.5  0.875 0.125 0.5  1 0.125 0.5  0 0.25 0.5  0.125 0.25 0.5  0.25 0.25 0.5  0.375 0.25 0.5  0.5 0.25 0.5  0.625 0.25 0.5  0.75 0.25 0.5  0.875 0.25 0.5  1 0.25 0.5  0 0.375 0.5  0.125 0.375 0.5  0.25 0.375 0.5  0.375 0.375 0.5  0.5 0.375 0.5  0.625 0.375 0.5  0.75 0.375 0.5  0.875 0.375 0.5  1 0.375 0.5  0 0.5 0.5  0.125 0.5 0.5  0.25 0.5 0.5  0.375 0.5 0.5  0.5 0.5 0.5  0.625 0.5 0.5  0.75 0.5 0.5  0.875 0.5 0.5  1 0.5 0.5  0 0.625 0.5  0.125 0.625 0.5  0.25 0.625 0.5  0.375 0.625 0.5  0.5 0.625 0.5  0.625 0.625 0.5  0.75 0.625 0.5  0.875 0.625 0.5  1 0.625 0.5  0 0.75 0.5  0.125 0.75 0.5  0.25 0.75 0.5  0.375 0.75 0.5  0.5 0.75 0.5  0.625 0.75 0.5  0.75 0.75 0.5  0.875 0.75 0.5  1 0.75 0.5  0 0.875 0.5  0.125 0.875 0.5  0.25 0.875 0.5  0.375 0.875 0.5  0.5 0.875 0.5  0.625 0.875 0.5  0.75 0.875 0.5  0.875 0.875 0.5  1 0.875 0.5  0 1 0.5  0.125 1 0.5  0.25 1 0.5  0.375 1 0.5  0.5 1 0.5  0.625 1 0.5  0.75 1 0.5  0.875 1 0.5  1 1 0.5  0 0 0.625  0.125 0 0.625  0.25 0 0.625  0.375 0 0.625  0.5 0 0.625  0.625 0 0.625  0.75 0 0.625  0.875 0 0.625  1 0 0.625  0 0.125 0.625  0.125 0.125 0.625  0.25 0.125 0.625  0.375 0.125 0.625  0.5 0.125 0.625  0.625 0.125 0.625  0.75 0.125 0.625  0.875 0.125 0.625  1 0.125 0.625  0 0.25 0.625  0.125 0.25 0.625  0.25 0.25 0.625  0.375 0.25 0.625  0.5 0.25 0.625  0.625 0.25 0.625  0.75 0.25 0.625  0.875 0.25 0.625  1 0.25 0.625  0 0.375 0.625  0.125 0.375 0.625  0.25 0.375 0.625  0.375 0.375 0.625  0.5 0.375 0.625  0.625 0.375 0.625  0.75 0.375 0.625  0.875 0.375 0.625  1 0.375 0.625  0 0.5 0.625  0.125 0.5 0.625  0.25 0.5 0.625  0.375 0.5 0.625  0.5 0.5 0.625  0.625 0.5 0.625  0.75 0.5 0.625  0.875 0.5 0.625  1 0.5 0.625  0 0.625 0.625  0.125 0.625 0.625  0.25 0.625 0.625  0.375 0.625 0.625  0.5 0.625 0.625  0.625 0.625 0.625  0.75 0.625 0.625  0.875 0.625 0.625  1 0.625 0.625  0 0.75 0.625  0.125 0.75 0.625  0.25 0.75 0.625  0.375 0.75 0.625  0.5 0.75 0.625  0.625 0.75 0.625  0.75 0.75 0.625  0.875 0.75 0.625  1 0.75 0.625  0 0.875 0.625  0.125 0.875 0.625  0.25 0.875 0.625  0.375 0.875 0.625  0.5 0.875 0.625  0.625 0.875 0.625  0.75 0.875 0.625  0.875 0.875 0.625  1 0.875 0.625  0 1 0.625  0.125 1 0.625  0.25 1 0.625  0.375 1 0.625  0.5 1 0.625  0.625 1 0.625  0.75 1 0.625  0.875 1 0.625  1 1 0.625  0 0 0.75  0.125 0 0.75  0.25 0 0.75  0.375 0 0.75  0.5 0 0.75  0.625 0 0.75  0.75 0 0.75  0.875 0 0.75  1 0 0.75  0 0.125 0.75  0.125 0.125 0.75  0.25 0.125 0.75  0.375 0.125 0.75  0.5 0.125 0.75  0.625 0.125 0.75  0.75 0.125 0.75  0.875 0.125 0.75  1 0.125 0.75  0 0.25 0.75  0.125 0.25 0.75  0.25 0.25 0.75  0.375 0.25 0.75  0.5 0.25 0.75  0.625 0.25 0.75  0.75 0.25 0.75  0.875 0.25 0.75  1 0.25 0.75  0 0.375 0.75  0.125 0.375 0.75  0.25 0.375 0.75  0.375 0.375 0.75  0.5 0.375 0.75  0.625 0.375 0.75  0.75 0.375 0.75  0.875 0.375 0.75  1 0.375 0.75  0 0.5 0.75  0.125 0.5 0.75  0.25 0.5 0.75  0.375 0.5 0.75  0.5 0.5 0.75  0.625 0.5 0.75  0.75 0.5 0.75  0.875 0.5 0.75  1 0.5 0.75  0 0.625 0.75  0.125 0.625 0.75  0.25 0.625 0.75  0.375 0.625 0.75  0.5 0.625 0.75  0.625 0.625 0.75  0.75 0.625 0.75  0.875 0.625 0.75  1 0.625 0.75  0 0.75 0.75  0.125 0.75 0.75  0.25 0.75 0.75  0.375 0.75 0.75  0.5 0.75 0.75  0.625 0.75 0.75  0.75 0.75 0.75  0.875 0.75 0.75  1 0.75 0.75  0 0.875 0.75  0.125 0.875 0.75  0.25 0.875 0.75  0.375 0.875 0.75  0.5 0.875 0.75  0.625 0.875 0.75  0.75 0.875 0.75  0.875 0.875 0.75  1 0.875 0.75  0 1 0.75  0.125 1 0.75  0.25 1 0.75  0.375 1 0.75  0.5 1 0.75  0.625 1 0.75  0.75 1 0.75  0.875 1 0.75  1 1 0.75  0 0 0.875  0.125 0 0.875  0.25 0 0.875  0.375 0 0.875  0.5 0 0.875  0.625 0 0.875  0.75 0 0.875  0.875 0 0.875  1 0 0.875  0 0.125 0.875  0.125 0.125 0.875  0.25 0.125 0.875  0.375 0.125 0.875  0.5 0.125 0.875  0.625 0.125 0.875  0.75 0.125 0.875  0.875 0.125 0.875  1 0.125 0.875  0 0.25 0.875  0.125 0.25 0.875  0.25 0.25 0.875  0.375 0.25 0.875  0.5 0.25 0.875  0.625 0.25 0.875  0.75 0.25 0.875  0.875 0.25 0.875  1 0.25 0.875  0 0.375 0.875  0.125 0.375 0.875  0.25 0.375 0.875  0.375 0.375 0.875  0.5 0.375 0.875  0.625 0.375 0.875  0.75 0.375 0.875  0.875 0.375 0.875  1 0.375 0.875  0 0.5 0.875  0.125 0.5 0.875  0.25 0.5 0.875  0.375 0.5 0.875  0.5 0.5 0.875  0.625 0.5 0.875  0.75 0.5 0.875  0.875 0.5 0.875  1 0.5 0.875  0 0.625 0.875  0.125 0.625 0.875  0.25 0.625 0.875  0.375 0.625 0.875  0.5 0.625 0.875  0.625 0.625 0.875  0.75 0.625 0.875  0.875 0.625 0.875  1 0.625 0.875  0 0.75 0.875  0.125 0.75 0.875  0.25 0.75 0.875  0.375 0.75 0.875  0.5 0.75 0.875  0.625 0.75 0.875  0.75 0.75 0.875  0.875 0.75 0.875  1 0.75 0.875  0 0.875 0.875  0.125 0.875 0.875  0.25 0.875 0.875  0.375 0.875 0.875  0.5 0.875 0.875  0.625 0.875 0.875  0.75 0.875 0.875  0.
[...]
<PointData  Vectors="f_587"> 
<DataArray  type="Float64"  Name="f_587"  NumberOfComponents="3" format="ascii">9.9989286885630801e-01 0.0000000000000000e+00 0.0000000000000000e+00  9.9987927898705131e-01 0.0000000000000000e+00 -5.2810894248674551e-05  9.9990790897543236e-01 0.0000000000000000e+00 -1.2056941121122900e-04  9.9997491573582042e-01 0.0000000000000000e+00 -1.7565624738808200e-04  1.0000526750975507e+00 0.0000000000000000e+00 -1.9105901915536592e-04  1.0001101147105176e+00 0.0000000000000000e+00 -1.5915587500372769e-04  1.0001219678198432e+00 0.0000000000000000e+00 -9.3698460452191183e-05  1.0000885749824719e+00 0.0000000000000000e+00 -2.7653483987986926e-05  1.0000000006213623e+00 0.0000000000000000e+00 0.0000000000000000e+00  9.9975832216057070e-01 0.0000000000000000e+00 0.0000000000000000e+00  9.9972541528775472e-01 0.0000000000000000e+00 -1.3548701391084513e-04  9.9978351754161821e-01 0.0000000000000000e+00 -3.2015391105648855e-04  9.9992942360143533e-01 0.0000000000000000e+00 -4.7732379952472722e-04  1.0001046655129338e+00 0.0000000000000000e+00 -5.3208548254628371e-04  1.0002401231008464e+00 0.0000000000000000e+00 -4.5912634945134863e-04  1.0002795029455320e+00 0.0000000000000000e+00 -2.9097364323461269e-04  1.0002235709358958e+00 0.0000000000000000e+00 -1.0985253544863067e-04  1.0000000006213623e+00 0.0000000000000000e+00 0.0000000000000000e+00  9.9966368051232446e-01 0.0000000000000000e+00 0.0000000000000000e+00  9.9962134383966184e-01 0.0000000000000000e+00 -1.9898776660620931e-04  9.9969977854153991e-01 0.0000000000000000e+00 -4.6670701833692287e-04  9.9989740419580153e-01 0.0000000000000000e+00 -6.9608614069656264e-04  1.0001371132526296e+00 0.0000000000000000e+00 -7.7979788127156575e-04  1.0003253624175348e+00 0.0000000000000000e+00 -6.7962494577111972e-04  1.0003863728053564e+00 0.0000000000000000e+00 -4.4055545506805922e-04  1.0003214235394686e+00 0.0000000000000000e+00 -1.7689396295794102e-04  1.0000000006213623e+00 0.0000000000000000e+00 0.0000000000000000e+00  9.9961964668561420e-01 0.0000000000000000e+00 0.0000000000000000e+00  9.9957245249906190e-01 0.0000000000000000e+00 -2.3248180511247746e-04  9.9966028792090122e-01 0.0000000000000000e+00 -5.4306723776168246e-04  9.9988100352827103e-01 0.0000000000000000e+00 -8.0922921245910355e-04  1.0001498917051059e+00 0.0000000000000000e+00 -9.0858104973243930e-04  1.0003632574965498e+00 0.0000000000000000e+00 -7.9641864046245717e-04  1.0004368649035376e+00 0.0000000000000000e+00 -5.2272596128130036e-04  1.0003703035316525e+00 0.0000000000000000e+00 -2.1571572676533618e-04  1.0000000006213623e+00 0.0000000000000000e+00 0.0000000000000000e+00  9.9962850960432026e-01 0.0000000000000000e+00 0.0000000000000000e+00  9.9957933037776070e-01 0.0000000000000000e+00 -2.3005561536635269e-04  9.9966482799970435e-01 0.0000000000000000e+00 -5.4052171322522278e-04  9.9988031044361780e-01 0.0000000000000000e+00 -8.0682133397623598e-04  1.0001436025302952e+00 0.0000000000000000e+00 -9.0801331392218311e-04  1.0003544261058908e+00 0.0000000000000000e+00 -7.9932581055512794e-04  1.0004304288844545e+00 0.0000000000000000e+00 -5.2843408985792995e-04  1.0003675295395960e+00 0.0000000000000000e+00 -2.2035931037695691e-04  1.0000000006213623e+00 0.0000000000000000e+00 0.0000000000000000e+00  9.9968983701728142e-01 0.0000000000000000e+00 0.0000000000000000e+00  9.9964304414205929e-01 0.0000000000000000e+00 -1.9181011525408221e-04  9.9971390144700156e-01 0.0000000000000000e+00 -4.5805326716314641e-04  9.9989535356997872e-01 0.0000000000000000e+00 -6.8747494676218524e-04  1.0001181086521962e+00 0.0000000000000000e+00 -7.7671081773060915e-04  1.0002981996820575e+00 0.0000000000000000e+00 -6.8697680331237328e-04  1.0003658296814988e+00 0.0000000000000000e+00 -4.5694757092459799e-04  1.0003136436668674e+00 0.0000000000000000e+00 -1.9155235297247511e-04  1.0000000006213623e+00 0.0000000000000000e+00 0.0000000000000000e+00  9.9979999146379983e-01 0.0000000000000000e+00 0.0000000000000000e+00  9.9976368121036441e-01 0.0000000000000000e+00 -1.2375304712155922e-04  9.9980768492982974e-01 0.0000000000000000e+00 -3.0376171905665026e-04  9.9992622442297729e-01 0.0000000000000000e+00 -4.6099577661278072e-04  1.0000736319670349e+00 0.0000000000000000e+00 -5.2496444524965707e-04  1.0001944843962711e+00 0.0000000000000000e+00 -4.6835796223748503e-04  1.0002423461258882e+00 0.0000000000000000e+00 -3.1532239564797693e-04  1.0002108285893869e+00 0.0000000000000000e+00 -1.3473095520786965e-04  1.0000000006213623e+00 0.0000000000000000e+00 0.0000000000000000e+00  9.9994767100462911e-01 0.0000000000000000e+00 0.0000000000000000e+00  9.9993342714331968e-01 0.0000000000000000e+00 -3.7970334724881090e-05  9.9994221673865047e-01 0.0000000000000000e+00 -1.0043190068230511e-04  9.9997297303801780e-01 0.0000000000000000e+00 -1.5754473320574316e-04  1.0000139525678080e+00 0.0000000000000000e+00 -1.8421848151723702e-04  1.0000500221394832e+00 0.0000000000000000e+00 -1.6956717700006383e-04  1.0000678713986404e+00 0.0000000000000000e+00 -1.2003556202302652e-04  1.0000653712897416e+00 0.0000000000000000e+00 -5.7023963866116485e-05  1.0000000006213623e+00 0.0000000000000000e+00 0.0000000000000000e+00  1.0000000006213623e+00 0.0000000000000000e+00 0.0000000000000000e+00  1.0000000006213623e+00 0.0000000000000000e+00 0.0000000000000000e+00  1.0000000006213623e+00 0.0000000000000000e+00 0.0000000000000000e+00  1.0000000006213623e+00 0.0000000000000000e+00 0.0000000000000000e+00  1.0000000006213623e+00 0.0000000000000000e+00 0.0000000000000000e+00  1.0000000006213623e+00 0.0000000000000000e+00 0.0000000000000000e+00  1.0000000006213623e+00 0.0000000000000000e+00 0.0000000000000000e+00  1.0000000006213623e+00 0.0000000000000000e+00 0.0000000000000000e+00  1.0000000006213623e+00 0.0000000000000000e+00 0.0000000000000000e+00  9.9979566352626914e-01 0.0000000000000000e+00 0.0000000000000000e+00  9.9974796061032800e-01 5.9900018075004242e-06 -4.6616466499854298e-05  9.9980564817980655e-01 8.0576471507199965e-06 -1.4833999621485713e-04  9.9994124302451426e-01 8.4555953823400020e-06 -2.3765478335794891e-04  1.0000998281875455e+00 8.8803780207265391e-06 -2.6863491328834964e-04  1.0002242404445749e+00 9.5019718828070285e-06 -2.2705595654828301e-04  1.0002603736310800e+00 9.0383744320324025e-06 -1.2866824805614843e-04  1.0001889527586116e+00 4.6990914325329225e-06 -2.4591025525461599e-05  1.0000000006213623e+00 0.0000000000000000e+00 0.0000000000000000e+00  9.9947857983763977e-01 0.0000000000000000e+00 0.0000000000000000e+00  9.9938052263394783e-01 7.2076112692256559e-06 -1.2470498092072581e-04  9.9950825330329518e-01 1.1175330679127422e-05 -3.9273379206582209e-04  9.9982558239202834e-01 1.0559100284853287e-05 -6.3288437034028655e-04  1.0002089267830607e+00 9.2710002991687927e-06 -7.2208336165313245e-04  1.0005210533354827e+00 8.8739096785839907e-06 -6.2031335726793274e-04  1.0006358953258072e+00 7.9290117979946811e-06 -3.6961200215008454e-04  1.0005155018508731e+00 3.0701628807128526e-06 -1.0075325118506411e-04  1.0002137292310174e+00 0.0000000000000000e+00 0.0000000000000000e+00  9.9925696280984899e-01 0.0000000000000000e+00 0.0000000000000000e+00  9.9913427413340106e-01 5.9095681043901981e-06 -1.8674021481507018e-04  9.9930960700253391e-01 1.0213910066161211e-05 -5.6751184834511793e-04  9.9974563101510738e-01 9.5849836302253462e-06 -9.1146900192667674e-04  1.0002770153114235e+00 7.7298572553191077e-06 -1.0424248183626456e-03  1.0007145931069517e+00 6.6474503019635749e-06 -9.0108452829350196e-04  1.0008873227542885e+00 5.3157954918483423e-06 -5.4811593595034539e-04  1.0007478467065560e+00 1.2480073782586966e-06 -1.6717295116998413e-04  1.0003812333556399e+00 0.0000000000000000e+00 0.0000000000000000e+00  9.9915048271976081e-01 0.0000000000000000e+00 0.0000000000000000e+00  9.9901607357617384e-01 3.6984139386568342e-06 -2.2017313316119588e-04  9.9921397211622831e-01 5.8292272983441162e-06 -6.5679154639504737e-04  9.9970458945429552e-01 5.0749259839314578e-06 -1.0522036994648344e-03  1.0003048360984905e+00 3.2392313050216207e-06 -1.2048209441288891e-03  1.0008029749016212e+00 1.6181050346037092e-06 -1.0454559061294237e-03  1.0010079972939994e+00 4.6082277969257346e-07 -6.4337554884904516e-04  1.0008649254011834e+00 -5.4363427990874164e-07 -2.0637492262215831e-04  1.0004831847435256e+00 0.0000000000000000e+00 0.0000000000000000e+00  9.9916113141469720e-01 0.0000000000000000e+00 0.0000000000000000e+00  9.9902318492466302e-01 1.4611574189255368e-06 -2.1716190363308381e-04  9.9921789597055510e-01 3.0911644581319951e-07 -6.5311582822195739e-04  9.9970128171495565e-01 -9.1637637045208919e-07 -1.0483935323665312e-03  1.0002941083803638e+00 -2.6253822552210858e-06 -1.2025128642832439e-03  1.0007898968308933e+00 -4.6910567970255522e-06 -1.0462973985005954e-03  1.0010006609912319e+00 -5.3261093898786033e-06 -6.4726162057556489e-04  1.0008646220883344e+00 -2.4345320373681605e-06 -2.1026978063372714e-04  1.0005170609129785e+00 0.0000000000000000e+00 0.0000000000000000e+00  9.9928776510586570e-01 0.0000000000000000e+00 0.0000000000000000e+00  9.9915831996934545e-01 -7.8377297519676134e-07 -1.7804196429445924e-04  9.9932281953369917e-01 -3.9858775203017275e-06 -5.5551061210856538e-04  9.9973583450785741e-01 -5.2265398413064335e-06 -8.9824245323719013e-04  1.0002443130483309e+00 -6.7942517308894739e-06 -1.0334630637486024e-03  1.0006734737652583e+00 -9.3877263221390857e-06 -9.0176227044453825e-04  1.0008622483995573e+00 -1.0187664195494273e-05 -5.5902948143175520e-04  1.0007480212347624e+00 -4.8541201216245787e-06 -1.7994935033517696e-04  1.0004837569334866e+00 0.0000000000000000e+00 0.0000000000000000e+00  9.9952458096421759e-01 0.0000000000000000e+00 0.0000000000000000e+00  9.9942649871152334e-01 -2.7332574992989940e-06 -1.1167202603321955e-04  9.9953296204019426e-01 -5.6033408747738756e-06 -3.7125943652018288e-04  9.9981028320182730e-01 -6.5705728822532297e-06 -6.0774377118690936e-04  1.0001554006362954e+00 -8.1129600069267413e-06 -7.0305008694024069e-04  1.0004504449653431e+00 -1.0788987774803194e-05 -6.1667334111488047e-04  1.0005862643441870e+00 -1.2025896172133426e-05 -3.8457071583423682e-04  1.0005157650255567e+00 -6.9258599781338485e-06 -1.2361935024633351e-04  1.0003823161686869e+00 0.0000000000000000e+00 0.0000000000000000e+00  9.9984701249318508e-01 0.0000000000000000e+00 0.0000000000000000e+00  9.9981416616299668e-01 -3.8581618239578179e-06 -3.3987512490014536e-05  9.9984213823338330e-01 -6.0757795653735108e-06 -1.2438570966474998e-04  9.9992585928004751e-01 -7.4641937313587624e-06 -2.0754708391982086e-04  1.0000353620047033e+00 -8.7811753526557571e-06 -2.4305582462130499e-04  1.0001336743208318e+00 -1.0098502588000603e-05 -2.1669880157799807e-04  1.0001864741379727e+00 -1.0148657651234618e-05 -1.3997639039836225e-04  1.0001796307559150e+00 -6.2419905333741141e-06 -5.0978919021524137e-05  1.0002145433905894e+00 0.0000000000000000e+00 0.0000000000000000e+00  1.0000000006213623e+00 0.0000000000000000e+00 0.0000000000000000e+00  1.0000000006213623e+00 -3.8581618239578179e-06 0.0000000000000000e+00  1.0000000006213623e+00 -6.0757795653735108e-06 0.0000000000000000e+00  1.0000000006213623e+00 -7.4641937313587624e-06 0.0000000000000000e+00  1.0000000006213623e+00 -8.7811753526557571e-06 0.0000000000000000e+00  1.0000000006213623e+00 -1.0098502588000603e-05 0.0000000000000000e+00  1.0000000006213623e+00 -1.0148657651234618e-05 0.0000000000000000e+00  1.0000000006213623e+00 -6.2419905333741141e-06 0.0000000000000000e+00  1.0000000006213623e+00 1.0877629459082883e-04 0.0000000000000000e+00  9.9972365839250577e-01 0.0000000000000000e+00 0.0000000000000000e+00  9.9962399996728557e-01 9.9870597166651297e-06 -3.9100803927988357e-05  9.9971219623105601e-01 1.5665608463780750e-05 -2.0106536641619713e-04  9.9990761163110509e-01 1.8463987319830753e-05 -3.4367844936138674e-04  1.0001334655782093e+00 2.0036861271448636e-05 -3.9735700944622406e-04  1.0003232160332372e+00 2.0250954571513049e-05 -3.4164345125288693e-04  1.0003953454912768e+00 1.7666742480835992e-05 -1.9233379240287500e-04  1.0002755848642824e+00 8.6411381176933442e-06 -2.2669311046682981e-05  1.0000000006213623e+00 0.0000000000000000e+00 0.0000000000000000e+00  9.9926802118643987e-01 0.0000000000000000e+00 0.0000000000000000e+00  9.9906938802633338e-01 1.1540466529950417e-05 -1.1415375697736733e-04  9.9926630470522948e-01 2.1524719018509543e-05 -5.3486994512689330e-04  9.9973085483641477e-01 2.3752213827878532e-05 -9.1167868260062942e-04  1.0002836409197229e+00 2.2899751352052205e-05 -1.0542436788747655e-03  1.0007570159753687e+00 2.0840427776328083e-05 -9.0683207224975728e-04  1.0009635457363928e+00 1.5967647827947375e-05 -5.2030017093875666e-04  1.0007632551166312e+00 4.7527230346510750e-06 -9.2265104896739988e-05  1.0003972933462821e+00 0.0000000000000000e+00 0.0000000000000000e+00  9.9895053276932144e-01 0.0000000000000000e+00 0.0000000000000000e+00  9.9870278190445605e-01 9.4978093805485848e-06 -1.7836672915893945e-04  9.9897052526629415e-01 1.9575432776305499e-05 -7.6645444299450389e-04  9.9960955487485725e-01 2.1452582055497178e-05 -1.3002227643553023e-03  1.0003775089981106e+00 1.9532296979227487e-05 -1.5048512980130352e-03  1.0010381394473866e+00 1.6410047091453601e-05 -1.2972415700737519e-03  1.0013376717414262e+00 1.1065485121602257e-05 -7.5524476790963624e-04  1.0011053924878317e+00 1.4324611581485518e-06 -1.6063202449951024e-04  1.0007104225596553e+00 0.0000000000000000e+00 0.0000000000000000e+00  9.9879740792107952e-01 0.0000000000000000e+00 0.0000000000000000e+00  9.9852732752028084e-01 6.3952003908024800e-06 -2.1473492229837676e-04  9.9882831991845566e-01 1.1143213483265382e-05 -8.8255484993484941e-04  9.9954791253431186e-01 1.1290137497595244e-05 -1.4921496633949099e-03  1.0004164771894419e+00 8.8696238090826154e-06 -1.7278300368541541e-03  1.0011669075782021e+00 5.4803878328272369e-06 -1.4920728372050920e-03  1.0015160209021949e+00 1.8265398823277368e-06 -8.7638093519814327e-04  1.0012767287117612e+00 -1.3430603581264335e-06 -2.0202633049410353e-04  1.0009000996977382e+00 0.0000000000000000e+00 0.0000000000000000e+00  9.9880889647177684e-01 0.0000000000000000e+00 0.0000000000000000e+00  9.9853412030538258e-01 3.3903197044375513e-06 -2.1176319869224342e-04  9.9883163857789814e-01 6.4707223696744259e-07 -8.7837828814735176e-04  9.9954308700130379e-01 -1.8842490634332443e-06 -1.4875087209250829e-03  1.0004031646957576e+00 -4.7887001333119537e-06 -1.7240851065548366e-03  1.0011510771249172e+00 -8.1740427613959273e-06 -1.4907797100697322e-03  1.0015078175802550e+00 -9.2490772164626422e-06 -8.7798707025928330e-04  1.0012787169576092e+00 -4.3152022962311549e-06 -2.0463761117895095e-04  1.0009632719525143e+00 0.0000000000000000e+00 0.0000000000000000e+00  9.9898339437682793e-01 0.0000000000000000e+00 0.0000000000000000e+00  9.9872811037728615e-01 1.4964208201682598e-07 -1.6978146512813388e-04  9.9898339232133981e-01 -7.5714023186038923e-06 -7.5277142570708510e-04  9.9959558870583698e-01 -1.1618360865021941e-05 -1.2840545887342107e-03  1.0003364496220770e+00 -1.4891918306650426e-05 -1.4909192983662972e-03  1.0009867170774371e+00 -1.8620902803906924e-05 -1.2909328058833055e-03  1.0013071606668444e+00 -1.8681324821819584e-05 -7.5928423387555883e-04  1.0011130837147832e+00 -8.4638745584771343e-06 -1.7017980466556431e-04  1.0009025629391042e+00 0.0000000000000000e+00 0.0000000000000000e+00  9.9931509187155865e-01 0.0000000000000000e+00 0.0000000000000000e+00  9.9912366612331249e-01 -3.1797699066880761e-06 -1.0172644975478632e-04  9.9929391072681395e-01 -1.0724363448823627e-05 -5.1050070971612863e-04  9.9970970143232296e-01 -1.4836093489660652e-05 -8.8068219494565839e-04  1.0002154093546296e+00 -1.8349845442598440e-05 -1.0252227997565764e-03  1.0006647051931623e+00 -2.2104797556206845e-05 -8.8973002902742405e-04  1.0008967211820612e+00 -2.2584336078602979e-05 -5.2328774449703747e-04  1.0007763176220059e+00 -1.2540744371875647e-05 -1.1130838056793823e-04  1.0007153941903957e+00 0.0000000000000000e+00 0.0000000000000000e+00  9.9976948513304809e-01 0.0000000000000000e+00 0.0000000000000000e+00  9.9970907505723627e-01 -5.5328264259042943e-06 -3.1011583265898028e-05  9.9975757314837144e-01 -1.1683434814962591e-05 -1.7627830077131414e-04  9.9988750230144963e-01 -1.6181643799196848e-05 -3.0674782193563203e-04  1.0000511944235464e+00 -1.9257427716419390e-05 -3.5746621951451282e-04  1.0002014509617998e+00 -2.0845012716029236e-05 -3.1062065642217628e-04  1.0002894219249503e+00 -1.9553103256914359e-05 -1.8426584518175444e-04  1.0002785405127903e+00 -1.1879887622571634e-05 -4.1988040357451280e-05  1.0004033374983454e+00 0.0000000000000000e+00 0.0000000000000000e+00  1.0000000006213623e+00 0.0000000000000000e+00 0.0000000000000000e+00  1.0000000006213623e+00 -5.5328264259042943e-06 0.0000000000000000e+00  1.0000000006213623e+00 -1.1683434814962591e-05 0.0000000000000000e+00  1.0000000006213623e+00 -1.6181643799196848e-05 0.0000000000000000e+00  1.0000000006213623e+00 -1.9257427716419390e-05 0.0000000000000000e+00  1.0000000006213623e+00 -2.0845012716029236e-05 0.0000000000000000e+00  1.0000000006213623e+00 -1.9553103256914359e-05 0.0000000000000000e+00  1.0000000006213623e+00 -1.1879887622571634e-05 0.0000000000000000e+00  1.0000000006213623e+00 2.0242377753221241e-04 0.0000000000000000e+00  9.9968860059657882e-01 0.0000000000000000e+00 0.0000000000000000e+00  9.9952637941314282e-01 1.2511313329000265e-05 -3.2923272165369068e-05  9.9965130474106345e-01 2.2279120418811984e-05 -2.7466125216961613e-04  9.9988327371853414e-01 2.8685594234227062e-05 -4.7484861602298901e-04  1.0001389451938776e+00 3.1860230114924487e-05 -5.5183455214823649e-04  1.0003794298467610e+00 3.0848118751007149e-05 -4.8760043850624144e-04  1.0005098414849496e+00 2.5328382085146171e-05 -2.8709964581302369e-04  1.0003420983116620e+00 1.1545707271172149e-05 -2.8671764668902170e-05  1.0000000006213623e+00 0.0000000000000000e+00 0.0000000000000000e+00  9.9916289114925094e-01 0.0000000000000000e+00 0.0000000000000000e+00  9.9884249869163344e-01 1.4251938939413797e-05 -1.1101455205895318e-04  9.9911505429085701e-01 3.0628292374296112e-05 -7.3619799893709207e-04  9.9966986334558883e-01 3.7290791135076480e-05 -1.2650500626143210e-03  1.0002993079438984e+00 3.7954008625380591e-05 -1.4618547160608663e-03  1.0008844724062915e+00 3.3781494816933840e-05 -1.2749789313504403e-03  1.0012123695652040e+00 2.3586274859731987e-05 -7.4227959171581598e-04  1.0009399869832114e+00 5.4232067057192912e-06 -9.7912252715862946e-05  1.0005289902155992e+00 0.0000000000000000e+00 0.0000000000000000e+00  9.9880159371746935e-01 0.0000000000000000e+00 0.0000000000000000e+00  9.9840385531247766e-01 1.1639833530196852e-05 -1.8265356175331516e-04  9.9876460330251104e-01 2.7570108737823394e-05 -1.0464488332119579e-03  9.9952479448099163e-01 3.3563719365768360e-05 -1.7925090343569035e-03  1.0003997905914059e+00 3.2953597482246283e-05 -2.0722475338945537e-03  1.0012074150285815e+00 2.7657162454957171e-05 -1.8037292499984889e-03  1.0016595623824622e+00 1.6975144767476479e-05 -1.0555284349954216e-03  1.0013459152550044e+00 1.1346134368440297e-06 -1.7357189096720637e-04  1.0009416019904480e+00 0.0000000000000000e+00 0.0000000000000000e+00  9.9862873332467672e-01 0.0000000000000000e+00 0.0000000000000000e+00  9.9819733699590973e-01 8.2428230849312852e-06 -2.2533965820575660e-04  9.9859767509433606e-01 1.5397054990593915e-05 -1.1992370343990814e-03  9.9945201638075787e-01 1.7527652928005401e-05 -2.0485484245413663e-03  1.0004421232322416e+00 1.5807052322893010e-05 -2.3690159733384254e-03  1.0013549049521981e+00 1.1051788622153071e-05 -2.0614159242187901e-03  1.0018687586910056e+00 4.2166079656760081e-06 -1.2116004987861664e-03  1.0015450233359642e+00 -1.8777227966403875e-06 -2.1974753641211962e-04  1.0011871360796740e+00 0.0000000000000000e+00 0.0000000000000000e+00  9.9863953721346854e-01 0.0000000000000000e+00 0.0000000000000000e+00  9.9820296240181439e-01 5.2