<?xml version="1.0"?>
<VTKFile type="UnstructuredGrid"  version="0.1"  >
<UnstructuredGrid>
<Piece  NumberOfPoints="729" NumberOfCells="3072">
<Points>
<DataArray  type="Float64"  NumberOfComponents="3"  format="ascii">0 0 0  0.125 0 0  0.25 0 0  0.375 0 0  0.5 0 0  0.625 0 0  0.75 0 0  0.875 0 0  1 0 0  0 0.125 0  0.125 0.125 0  0.25 0.125 0  0.375 0.125 0  0.5 0.125 0  0.625 0.125 0  0.75 0.125 0  0.875 0.125 0  1 0.125 0  0 0.25 0  0.125 0.25 0  0.25 0.25 0  0.375 0.25 0  0.5 0.25 0  0.625 0.25 0  0.75 0.25 0  0.875 0.25 0  1 0.25 0  0 0.375 0  0.125 0.375 0  0.25 0.375 0  0.375 0.375 0  0.5 0.375 0  0.625 0.375 0  0.75 0.375 0  0.875 0.375 0  1 0.375 0  0 0.5 0  0.125 0.5 0  0.25 0.5 0  0.375 0.5 0  0.5 0.5 0  0.625 0.5 0  0.75 0.5 0  0.875 0.5 0  1 0.5 0  0 0.625 0  0.125 0.625 0  0.25 0.625 0  0.375 0.625 0  0.5 0.625 0  0.625 0.625 0  0.75 0.625 0  0.875 0.625 0  1 0.625 0  0 0.75 0  0.125 0.75 0  0.25 0.75 0  0.375 0.75 0  0.5 0.75 0  0.625 0.75 0  0.75 0.75 0  0.875 0.75 0  1 0.75 0  0 0.875 0  0.125 0.875 0  0.25 0.875 0  0.375 0.875 0  0.5 0.875 0  0.625 0.875 0  0.75 0.875 0  0.875 0.875 0  1 0.875 0  0 1 0  0.125 1 0  0.25 1 0  0.375 1 0  0.5 1 0  0.625 1 0  0.75 1 0  0.875 1 0  1 1 0  0 0 0.125  0.125 0 0.125  0.25 0 0.125  0.375 0 0.125  0.5 0 0.125  0.625 0 0.125  0.75 0 0.125  0.875 0 0.125  1 0 0.125  0 0.125 0.125  0.125 0.125 0.125  0.25 0.125 0.125  0.375 0.125 0.125  0.5 0.125 0.125  0.625 0.125 0.125  0.75 0.125 0.125  0.875 0.125 0.125  1 0.125 0.125  0 0.25 0.125  0.125 0.25 0.125  0.25 0.25 0.125  0.375 0.25 0.125  0.5 0.25 0.125  0.625 0.25 0.125  0.75 0.25 0.125  0.875 0.25 0.125  1 0.25 0.125  0 0.375 0.125  0.125 0.375 0.125  0.25 0.375 0.125  0.375 0.375 0.125  0.5 0.375 0.125  0.625 0.375 0.125  0.75 0.375 0.125  0.875 0.375 0.125  1 0.375 0.125  0 0.5 0.125  0.125 0.5 0.125  0.25 0.5 0.125  0.375 0.5 0.125  0.5 0.5 0.125  0.625 0.5 0.125  0.75 0.5 0.125  0.875 0.5 0.125  1 0.5 0.125  0 0.625 0.125  0.125 0.625 0.125  0.25 0.625 0.125  0.375 0.625 0.125  0.5 0.625 0.125  0.625 0.625 0.125  0.75 0.625 0.125  0.875 0.625 0.125  1 0.625 0.125  0 0.75 0.125  0.125 0.75 0.125  0.25 0.75 0.125  0.375 0.75 0.125  0.5 0.75 0.125  0.625 0.75 0.125  0.75 0.75 0.125  0.875 0.75 0.125  1 0.75 0.125  0 0.875 0.125  0.125 0.875 0.125  0.25 0.875 0.125  0.375 0.875 0.125  0.5 0.875 0.125  0.625 0.875 0.125  0.75 0.875 0.125  0.875 0.875 0.125  1 0.875 0.125  0 1 0.125  0.125 1 0.125  0.25 1 0.125  0.375 1 0.125  0.5 1 0.125  0.625 1 0.125  0.75 1 0.125  0.875 1 0.125  1 1 0.125  0 0 0.25  0.125 0 0.25  0.25 0 0.25  0.375 0 0.25  0.5 0 0.25  0.625 0 0.25  0.75 0 0.25  0.875 0 0.25  1 0 0.25  0 0.125 0.25  0.125 0.125 0.25  0.25 0.125 0.25  0.375 0.125 0.25  0.5 0.125 0.25  0.625 0.125 0.25  0.75 0.125 0.25  0.875 0.125 0.25  1 0.125 0.25  0 0.25 0.25  0.125 0.25 0.25  0.25 0.25 0.25  0.375 0.25 0.25  0.5 0.25 0.25  0.625 0.25 0.25  0.75 0.25 0.25  0.875 0.25 0.25  1 0.25 0.25  0 0.375 0.25  0.125 0.375 0.25  0.25 0.375 0.25  0.375 0.375 0.25  0.5 0.375 0.25  0.625 0.375 0.25  0.75 0.375 0.25  0.875 0.375 0.25  1 0.375 0.25  0 0.5 0.25  0.125 0.5 0.25  0.25 0.5 0.25  0.375 0.5 0.25  0.5 0.5 0.25  0.625 0.5 0.25  0.75 0.5 0.25  0.875 0.5 0.25  1 0.5 0.25  0 0.625 0.25  0.125 0.625 0.25  0.25 0.625 0.25  0.375 0.625 0.25  0.5 0.625 0.25  0.625 0.625 0.25  0.75 0.625 0.25  0.875 0.625 0.25  1 0.625 0.25  0 0.75 0.25  0.125 0.75 0.25  0.25 0.75 0.25  0.375 0.75 0.25  0.5 0.75 0.25  0.625 0.75 0.25  0.75 0.75 0.25  0.875 0.75 0.25  1 0.75 0.25  0 0.875 0.25  0.125 0.875 0.25  0.25 0.875 0.25  0.375 0.875 0.25  0.5 0.875 0.25  0.625 0.875 0.25  0.75 0.875 0.25  0.875 0.875 0.25  1 0.875 0.25  0 1 0.25  0.125 1 0.25  0.25 1 0.25  0.375 1 0.25  0.5 1 0.25  0.625 1 0.25  0.75 1 0.25  0.875 1 0.25  1 1 0.25  0 0 0.375  0.125 0 0.375  0.25 0 0.375  0.375 0 0.375  0.5 0 0.375  0.625 0 0.375  0.75 0 0.375  0.875 0 0.375  1 0 0.375  0 0.125 0.375  0.125 0.125 0.375  0.25 0.125 0.375  0.375 0.125 0.375  0.5 0.125 0.375  0.625 0.125 0.375  0.75 0.125 0.375  0.875 0.125 0.375  1 0.125 0.375  0 0.25 0.375  0.125 0.25 0.375  0.25 0.25 0.375  0.375 0.25 0.375  0.5 0.25 0.375  0.625 0.25 0.375  0.75 0.25 0.375  0.875 0.25 0.375  1 0.25 0.375  0 0.375 0.375  0.125 0.375 0.375  0.25 0.375 0.375  0.375 0.375 0.375  0.5 0.375 0.375  0.625 0.375 0.375  0.75 0.375 0.375  0.875 0.375 0.375  1 0.375 0.375  0 0.5 0.375  0.125 0.5 0.375  0.25 0.5 0.375  0.375 0.5 0.375  0.5 0.5 0.375  0.625 0.5 0.375  0.75 0.5 0.375  0.875 0.5 0.375  1 0.5 0.375  0 0.625 0.375  0.125 0.625 0.375  0.25 0.625 0.375  0.375 0.625 0.375  0.5 0.625 0.375  0.625 0.625 0.375  0.75 0.625 0.375  0.875 0.625 0.375  1 0.625 0.375  0 0.75 0.375  0.125 0.75 0.375  0.25 0.75 0.375  0.375 0.75 0.375  0.5 0.75 0.375  0.625 0.75 0.375  0.75 0.75 0.375  0.875 0.75 0.375  1 0.75 0.375  0 0.875 0.375  0.125 0.875 0.375  0.25 0.875 0.375  0.375 0.875 0.375  0.5 0.875 0.375  0.625 0.875 0.375  0.75 0.875 0.375  0.875 0.875 0.375  1 0.875 0.375  0 1 0.375  0.125 1 0.375  0.25 1 0.375  0.375 1 0.375  0.5 1 0.375  0.625 1 0.375  0.75 1 0.375  0.875 1 0.375  1 1 0.375  0 0 0.5  0.125 0 0.5  0.25 0 0.5  0.375 0 0.5  0.5 0 0.5  0.625 0 0.5  0.75 0 0.5  0.875 0 0.5  1 0 0.5  0 0.125 0.5  0.125 0.125 0.5  0.25 0.125 0.5  0.375 0.125 0.5  0.5 0.125 0.5  0.625 0.125 0.5  0.75 0.125 0.5  0.875 0.125 0.5  1 0.125 0.5  0 0.25 0.5  0.125 0.25 0.5  0.25 0.25 0.5  0.375 0.25 0.5  0.5 0.25 0.5  0.625 0.25 0.5  0.75 0.25 0.5  0.875 0.25 0.5  1 0.25 0.5  0 0.375 0.5  0.125 0.375 0.5  0.25 0.375 0.5  0.375 0.375 0.5  0.5 0.375 0.5  0.625 0.375 0.5  0.75 0.375 0.5  0.875 0.375 0.5  1 0.375 0.5  0 0.5 0.5  0.125 0.5 0.5  0.25 0.5 0.5  0.375 0.5 0.5  0.5 0.5 0.5  0.625 0.5 0.5  0.75 0.5 0.5  0.875 0.5 0.5  1 0.5 0.5  0 0.625 0.5  0.125 0.625 0.5  0.25 0.625 0.5  0.375 0.625 0.5  0.5 0.625 0.5  0.625 0.625 0.5  0.75 0.625 0.5  0.875 0.625 0.5  1 0.625 0.5  0 0.75 0.5  0.125 0.75 0.5  0.25 0.75 0.5  0.375 0.75 0.5  0.5 0.75 0.5  0.625 0.75 0.5  0.75 0.75 0.5  0.875 0.75 0.5  1 0.75 0.5  0 0.875 0.5  0.125 0.875 0.5  0.25 0.875 0.5  0.375 0.875 0.5  0.5 0.875 0.5  0.625 0.875 0.5  0.75 0.875 0.5  0.875 0.875 0.5  1 0.875 0.5  0 1 0.5  0.125 1 0.5  0.25 1 0.5  0.375 1 0.5  0.5 1 0.5  0.625 1 0.5  0.75 1 0.5  0.875 1 0.5  1 1 0.5  0 0 0.625  0.125 0 0.625  0.25 0 0.625  0.375 0 0.625  0.5 0 0.625  0.625 0 0.625  0.75 0 0.625  0.875 0 0.625  1 0 0.625  0 0.125 0.625  0.125 0.125 0.625  0.25 0.125 0.625  0.375 0.125 0.625  0.5 0.125 0.625  0.625 0.125 0.625  0.75 0.125 0.625  0.875 0.125 0.625  1 0.125 0.625  0 0.25 0.625  0.125 0.25 0.625  0.25 0.25 0.625  0.375 0.25 0.625  0.5 0.25 0.625  0.625 0.25 0.625  0.75 0.25 0.625  0.875 0.25 0.625  1 0.25 0.625  0 0.375 0.625  0.125 0.375 0.625  0.25 0.375 0.625  0.375 0.375 0.625  0.5 0.375 0.625  0.625 0.375 0.625  0.75 0.375 0.625  0.875 0.375 0.625  1 0.375 0.625  0 0.5 0.625  0.125 0.5 0.625  0.25 0.5 0.625  0.375 0.5 0.625  0.5 0.5 0.625  0.625 0.5 0.625  0.75 0.5 0.625  0.875 0.5 0.625  1 0.5 0.625  0 0.625 0.625  0.125 0.625 0.625  0.25 0.625 0.625  0.375 0.625 0.625  0.5 0.625 0.625  0.625 0.625 0.625  0.75 0.625 0.625  0.875 0.625 0.625  1 0.625 0.625  0 0.75 0.625  0.125 0.75 0.625  0.25 0.75 0.625  0.375 0.75 0.625  0.5 0.75 0.625  0.625 0.75 0.625  0.75 0.75 0.625  0.875 0.75 0.625  1 0.75 0.625  0 0.875 0.625  0.125 0.875 0.625  0.25 0.875 0.625  0.375 0.875 0.625  0.5 0.875 0.625  0.625 0.875 0.625  0.75 0.875 0.625  0.875 0.875 0.625  1 0.875 0.625  0 1 0.625  0.125 1 0.625  0.25 1 0.625  0.375 1 0.625  0.5 1 0.625  0.625 1 0.625  0.75 1 0.625  0.875 1 0.625  1 1 0.625  0 0 0.75  0.125 0 0.75  0.25 0 0.75  0.375 0 0.75  0.5 0 0.75  0.625 0 0.75  0.75 0 0.75  0.875 0 0.75  1 0 0.75  0 0.125 0.75  0.125 0.125 0.75  0.25 0.125 0.75  0.375 0.125 0.75  0.5 0.125 0.75  0.625 0.125 0.75  0.75 0.125 0.75  0.875 0.125 0.75  1 0.125 0.75  0 0.25 0.75  0.125 0.25 0.75  0.25 0.25 0.75  0.375 0.25 0.75  0.5 0.25 0.75  0.625 0.25 0.75  0.75 0.25 0.75  0.875 0.25 0.75  1 0.25 0.75  0 0.375 0.75  0.125 0.375 0.75  0.25 0.375 0.75  0.375 0.375 0.75  0.5 0.375 0.75  0.625 0.375 0.75  0.75 0.375 0.75  0.875 0.375 0.75  1 0.375 0.75  0 0.5 0.75  0.125 0.5 0.75  0.25 0.5 0.75  0.375 0.5 0.75  0.5 0.5 0.75  0.625 0.5 0.75  0.75 0.5 0.75  0.875 0.5 0.75  1 0.5 0.75  0 0.625 0.75  0.125 0.625 0.75  0.25 0.625 0.75  0.375 0.625 0.75  0.5 0.625 0.75  0.625 0.625 0.75  0.75 0.625 0.75  0.875 0.625 0.75  1 0.625 0.75  0 0.75 0.75  0.125 0.75 0.75  0.25 0.75 0.75  0.375 0.75 0.75  0.5 0.75 0.75  0.625 0.75 0.75  0.75 0.75 0.75  0.875 0.75 0.75  1 0.75 0.75  0 0.875 0.75  0.125 0.875 0.75  0.25 0.875 0.75  0.375 0.875 0.75  0.5 0.875 0.75  0.625 0.875 0.75  0.75 0.875 0.75  0.875 0.875 0.75  1 0.875 0.75  0 1 0.75  0.125 1 0.75  0.25 1 0.75  0.375 1 0.75  0.5 1 0.75  0.625 1 0.75  0.75 1 0.75  0.875 1 0.75  1 1 0.75  0 0 0.875  0.125 0 0.875  0.25 0 0.875  0.375 0 0.875  0.5 0 0.875  0.625 0 0.875  0.75 0 0.875  0.875 0 0.875  1 0 0.875  0 0.125 0.875  0.125 0.125 0.875  0.25 0.125 0.875  0.375 0.125 0.875  0.5 0.125 0.875  0.625 0.125 0.875  0.75 0.125 0.875  0.875 0.125 0.875  1 0.125 0.875  0 0.25 0.875  0.125 0.25 0.875  0.25 0.25 0.875  0.375 0.25 0.875  0.5 0.25 0.875  0.625 0.25 0.875  0.75 0.25 0.875  0.875 0.25 0.875  1 0.25 0.875  0 0.375 0.875  0.125 0.375 0.875  0.25 0.375 0.875  0.375 0.375 0.875  0.5 0.375 0.875  0.625 0.375 0.875  0.75 0.375 0.875  0.875 0.375 0.875  1 0.375 0.875  0 0.5 0.875  0.125 0.5 0.875  0.25 0.5 0.875  0.375 0.5 0.875  0.5 0.5 0.875  0.625 0.5 0.875  0.75 0.5 0.875  0.875 0.5 0.875  1 0.5 0.875  0 0.625 0.875  0.125 0.625 0.875  0.25 0.625 0.875  0.375 0.625 0.875  0.5 0.625 0.875  0.625 0.625 0.875  0.75 0.625 0.875  0.875 0.625 0.875  1 0.625 0.875  0 0.75 0.875  0.125 0.75 0.875  0.25 0.75 0.875  0.375 0.75 0.875  0.5 0.75 0.875  0.625 0.75 0.875  0.75 0.75 0.875  0.875 0.75 0.875  1 0.75 0.875  0 0.875 0.875  0.125 0.875 0.875  0.25 0.875 0.875  0.375 0.875 0.875  0.5 0.875 0.875  0.625 0.875 0.875  0.75 0.875 0.875  0.
[...]
<PointData  Vectors="f_515"> 
<DataArray  type="Float64"  Name="f_515"  NumberOfComponents="3" format="ascii">9.9991610164167788e-01 0.0000000000000000e+00 0.0000000000000000e+00  9.9991176385088254e-01 0.0000000000000000e+00 -4.6954136599973572e-05  9.9993891236466503e-01 0.0000000000000000e+00 -9.7947094513213840e-05  9.9999027761114645e-01 0.0000000000000000e+00 -1.3229326207151533e-04  1.0000450514189074e+00 0.0000000000000000e+00 -1.3424993335132328e-04  1.0000814163443366e+00 0.0000000000000000e+00 -1.0281171415715918e-04  1.0000829775563054e+00 0.0000000000000000e+00 -5.2121086599224087e-05  1.0000538688577665e+00 0.0000000000000000e+00 -8.8490415538229820e-06  9.9999999957278785e-01 0.0000000000000000e+00 0.0000000000000000e+00  9.9981364486024749e-01 0.0000000000000000e+00 0.0000000000000000e+00  9.9980537991083462e-01 0.0000000000000000e+00 -1.0406648109449110e-04  9.9985406398543064e-01 0.0000000000000000e+00 -2.3414195026411899e-04  9.9996090419767381e-01 0.0000000000000000e+00 -3.4148035705806288e-04  1.0000842255837428e+00 0.0000000000000000e+00 -3.7464468702422629e-04  1.0001754250787924e+00 0.0000000000000000e+00 -3.1764739396280292e-04  1.0001954115735900e+00 0.0000000000000000e+00 -1.9522954208256248e-04  1.0001423203558446e+00 0.0000000000000000e+00 -6.6977359930704293e-05  9.9999999957278773e-01 0.0000000000000000e+00 0.0000000000000000e+00  9.9972508561371320e-01 0.0000000000000000e+00 0.0000000000000000e+00  9.9973372313722608e-01 0.0000000000000000e+00 -1.7242748765073829e-04  9.9980275177680022e-01 0.0000000000000000e+00 -3.5801548601048554e-04  9.9994728554117640e-01 0.0000000000000000e+00 -5.0654844944252194e-04  1.0001166658257499e+00 0.0000000000000000e+00 -5.4921302464812404e-04  1.0002449793165629e+00 0.0000000000000000e+00 -4.6169839937529084e-04  1.0002752840206941e+00 0.0000000000000000e+00 -2.7857830170131690e-04  1.0001949101776380e+00 0.0000000000000000e+00 -8.8258418238094176e-05  9.9999999957278773e-01 0.0000000000000000e+00 0.0000000000000000e+00  9.9966926835805581e-01 0.0000000000000000e+00 0.0000000000000000e+00  9.9969845229895893e-01 0.0000000000000000e+00 -2.2976376196562809e-04  9.9978303702078175e-01 0.0000000000000000e+00 -4.4508724931578654e-04  9.9994635425328726e-01 0.0000000000000000e+00 -6.0505934501713478e-04  1.0001372978069378e+00 0.0000000000000000e+00 -6.3990896267852653e-04  1.0002826637134870e+00 0.0000000000000000e+00 -5.2458972545593317e-04  1.0003146320338103e+00 0.0000000000000000e+00 -3.0144610763587827e-04  1.0002108370711857e+00 0.0000000000000000e+00 -7.9377081867665000e-05  9.9999999957278773e-01 0.0000000000000000e+00 0.0000000000000000e+00  9.9966140729476416e-01 0.0000000000000000e+00 0.0000000000000000e+00  9.9970071006828065e-01 0.0000000000000000e+00 -2.5322500341956009e-04  9.9979026704619067e-01 0.0000000000000000e+00 -4.7055545676453434e-04  9.9995208088711873e-01 0.0000000000000000e+00 -6.1950965693305078e-04  1.0001400268537015e+00 0.0000000000000000e+00 -6.3975923406850096e-04  1.0002832443032128e+00 0.0000000000000000e+00 -5.1061344196374515e-04  1.0003118545233733e+00 0.0000000000000000e+00 -2.7749683428359974e-04  1.0001985717067134e+00 0.0000000000000000e+00 -5.6326789091122992e-05  9.9999999957278773e-01 0.0000000000000000e+00 0.0000000000000000e+00  9.9970973409814401e-01 0.0000000000000000e+00 0.0000000000000000e+00  9.9974315660899227e-01 0.0000000000000000e+00 -2.2873300076897059e-04  9.9982211549664191e-01 0.0000000000000000e+00 -4.1798808045479706e-04  9.9996007567505651e-01 0.0000000000000000e+00 -5.3957144353277374e-04  1.0001198358934802e+00 0.0000000000000000e+00 -5.4784779475841247e-04  1.0002421125978496e+00 0.0000000000000000e+00 -4.2848194472693159e-04  1.0002658355651826e+00 0.0000000000000000e+00 -2.2269926125928176e-04  1.0001652659447828e+00 0.0000000000000000e+00 -3.4632112047979608e-05  9.9999999957278773e-01 0.0000000000000000e+00 0.0000000000000000e+00  9.9981015019536179e-01 0.0000000000000000e+00 0.0000000000000000e+00  9.9982699126369390e-01 0.0000000000000000e+00 -1.5766345967480608e-04  9.9987960121017339e-01 0.0000000000000000e+00 -2.8873627987577370e-04  9.9997127085567028e-01 0.0000000000000000e+00 -3.6924362069019515e-04  1.0000774408411170e+00 0.0000000000000000e+00 -3.7110275393278659e-04  1.0001591670067076e+00 0.0000000000000000e+00 -2.8690341144332166e-04  1.0001759918395612e+00 0.0000000000000000e+00 -1.4613661788983890e-04  1.0001114157300166e+00 0.0000000000000000e+00 -2.0847783366570168e-05  9.9999999957278773e-01 0.0000000000000000e+00 0.0000000000000000e+00  9.9994192856362418e-01 0.0000000000000000e+00 0.0000000000000000e+00  9.9994767744567070e-01 0.0000000000000000e+00 -6.1819687120215908e-05  9.9996579296597421e-01 0.0000000000000000e+00 -1.1121394805340100e-04  9.9999305950241457e-01 0.0000000000000000e+00 -1.3658679308943458e-04  1.0000230418773810e+00 0.0000000000000000e+00 -1.3161072075904489e-04  1.0000452388785073e+00 0.0000000000000000e+00 -9.7021374670402889e-05  1.0000485177583078e+00 0.0000000000000000e+00 -4.5951159654969815e-05  1.0000304646898797e+00 0.0000000000000000e+00 -5.3840722968459743e-06  9.9999999957278773e-01 0.0000000000000000e+00 0.0000000000000000e+00  9.9999999957278785e-01 0.0000000000000000e+00 0.0000000000000000e+00  9.9999999957278785e-01 0.0000000000000000e+00 0.0000000000000000e+00  9.9999999957278785e-01 0.0000000000000000e+00 0.0000000000000000e+00  9.9999999957278785e-01 0.0000000000000000e+00 0.0000000000000000e+00  9.9999999957278785e-01 0.0000000000000000e+00 0.0000000000000000e+00  9.9999999957278785e-01 0.0000000000000000e+00 0.0000000000000000e+00  9.9999999957278785e-01 0.0000000000000000e+00 0.0000000000000000e+00  9.9999999957278785e-01 0.0000000000000000e+00 0.0000000000000000e+00  9.9999999957278785e-01 0.0000000000000000e+00 0.0000000000000000e+00  9.9983713544158803e-01 0.0000000000000000e+00 0.0000000000000000e+00  9.9981085957010285e-01 -4.4183143654211377e-05 -2.0714715363376695e-05  9.9987132415749969e-01 -4.9050882087911048e-05 -9.9213358025869246e-05  9.9997893074643107e-01 -2.7157137800118956e-05 -1.6668158321309895e-04  1.0000913320537987e+00 7.4373023084068996e-06 -1.8932827908840405e-04  1.0001682301581689e+00 4.2631118528458606e-05 -1.6093419522551154e-04  1.0001746220130190e+00 6.4632198215780744e-05 -9.6416835018844292e-05  1.0001127382971930e+00 5.4621854060534782e-05 -2.9998198478729654e-05  9.9999999957278773e-01 0.0000000000000000e+00 0.0000000000000000e+00  9.9959559350876026e-01 0.0000000000000000e+00 0.0000000000000000e+00  9.9955273568567227e-01 -7.6542313004189977e-05 -5.1319312356987092e-05  9.9966789033153280e-01 -7.5520509796297091e-05 -2.4780355958463167e-04  9.9990581610054519e-01 -4.0579851742702951e-05 -4.3217037999431510e-04  1.0001767595983355e+00 7.8386579449318251e-06 -5.0904011827982429e-04  1.0003839924481477e+00 5.7773248293746705e-05 -4.5159461133375016e-04  1.0004405515979833e+00 9.4197710550297670e-05 -2.9049567101472430e-04  1.0003266230862615e+00 8.8456102602556437e-05 -1.0807093329182440e-04  1.0001464845913481e+00 0.0000000000000000e+00 0.0000000000000000e+00  9.9939000241793607e-01 0.0000000000000000e+00 0.0000000000000000e+00  9.9938261400378947e-01 -1.2095006757898772e-04 -1.1713558948344376e-04  9.9954366760242086e-01 -1.1447280010521282e-04 -3.8974218934556792e-04  9.9986706621809907e-01 -6.1739068713015068e-05 -6.3813683018142402e-04  1.0002435833586452e+00 6.3847466253349618e-06 -7.3480047517553203e-04  1.0005398744719900e+00 7.6284194992211129e-05 -6.3928366812525156e-04  1.0006282047576895e+00 1.3094082458887975e-04 -3.9553606156279570e-04  1.0004564541721175e+00 1.3128288807762534e-04 -1.2931546124757615e-04  1.0002615358097773e+00 0.0000000000000000e+00 0.0000000000000000e+00  9.9926036720086497e-01 0.0000000000000000e+00 0.0000000000000000e+00  9.9930072901528944e-01 -1.5152681450483757e-04 -1.9413837911961851e-04  9.9949297800507142e-01 -1.4341143010490156e-04 -5.0247571289081447e-04  9.9985694874105202e-01 -7.9198336633139004e-05 -7.6442450684035190e-04  1.0002836674426294e+00 2.2656504964044537e-06 -8.4945009855140919e-04  1.0006241094934152e+00 8.5270084247520312e-05 -7.1345149036242746e-04  1.0007248714669210e+00 1.5202637499638405e-04 -4.1027713745236786e-04  1.0005035582360682e+00 1.5820014123173355e-04 -9.9345219710497224e-05  1.0003316429785700e+00 0.0000000000000000e+00 0.0000000000000000e+00  9.9923647258205572e-01 0.0000000000000000e+00 0.0000000000000000e+00  9.9930509507246057e-01 -1.5309076499041266e-04 -2.4773514668103202e-04  9.9950434906070917e-01 -1.4764792543114761e-04 -5.5296028576301125e-04  9.9986404485985902e-01 -8.4242735337657638e-05 -7.9114584324615372e-04  1.0002870037935894e+00 -3.2450073566094058e-06 -8.4843466055727491e-04  1.0006282995422029e+00 7.8826199519919528e-05 -6.8507792391109268e-04  1.0007281755077062e+00 1.4547357979879466e-04 -3.5851765224091214e-04  1.0004855090703169e+00 1.5465075317871147e-04 -4.3745595722048482e-05  1.0003554120455731e+00 0.0000000000000000e+00 0.0000000000000000e+00  9.9933564920487394e-01 0.0000000000000000e+00 0.0000000000000000e+00  9.9939934817845411e-01 -1.2560299342076304e-04 -2.4832522699198389e-04  9.9957312934736642e-01 -1.2546654393418160e-04 -5.1068393407032234e-04  9.9988090667573470e-01 -7.4412589742437412e-05 -7.0012872749239364e-04  1.0002448334634624e+00 -7.5171238016679573e-06 -7.3011152292206305e-04  1.0005427334834183e+00 5.9687124639016318e-05 -5.6979368565300721e-04  1.0006330205007234e+00 1.1339598703762777e-04 -2.7060399384143472e-04  1.0004152573402816e+00 1.2100694094973862e-04 5.3028690528090160e-06  1.0003342773286290e+00 0.0000000000000000e+00 0.0000000000000000e+00  9.9955242917869147e-01 0.0000000000000000e+00 0.0000000000000000e+00  9.9958716125604374e-01 -8.3483580511999839e-05 -1.8352663407319634e-04  9.9970367822548745e-01 -8.8916700346580453e-05 -3.6345079546710774e-04  9.9991168983655665e-01 -5.5797374484486343e-05 -4.8606554850360700e-04  1.0001593278610097e+00 -9.2731082367686070e-06 -4.9780028383536673e-04  1.0003647934211901e+00 3.7055105444670041e-05 -3.7983046102755771e-04  1.0004323768497876e+00 7.1513346514740151e-05 -1.6800065806212185e-04  1.0002908970128610e+00 7.3574742861032342e-05 2.2925445281221714e-05  1.0002674253890285e+00 0.0000000000000000e+00 0.0000000000000000e+00  9.9984255835652636e-01 0.0000000000000000e+00 0.0000000000000000e+00  9.9985912622930451e-01 -5.1677274638974940e-05 -7.1844501231137323e-05  9.9990332171207963e-01 -6.1266447132999970e-05 -1.3720668489940310e-04  9.9997285144391612e-01 -4.2123701420154953e-05 -1.7598593288829819e-04  1.0000522686813567e+00 -1.0215032286450050e-05 -1.7358466898461481e-04  1.0001162552557168e+00 2.2081759690798547e-05 -1.2683704046377212e-04  1.0001358914708951e+00 4.3328250488874898e-05 -5.0998776097238791e-05  1.0000958525744494e+00 4.0280133094865458e-05 1.2013674104023939e-05  1.0001533289430695e+00 0.0000000000000000e+00 0.0000000000000000e+00  9.9999999957278785e-01 0.0000000000000000e+00 0.0000000000000000e+00  9.9999999957278785e-01 -5.1677274638974940e-05 0.0000000000000000e+00  9.9999999957278785e-01 -6.1266447132999970e-05 0.0000000000000000e+00  9.9999999957278785e-01 -4.2123701420154953e-05 0.0000000000000000e+00  9.9999999957278785e-01 -1.0215032286450050e-05 0.0000000000000000e+00  9.9999999957278785e-01 2.2081759690798547e-05 0.0000000000000000e+00  9.9999999957278785e-01 4.3328250488874898e-05 0.0000000000000000e+00  9.9999999957278785e-01 4.0280133094865458e-05 0.0000000000000000e+00  9.9999999957278773e-01 1.0839333680512375e-04 0.0000000000000000e+00  9.9979244691182456e-01 0.0000000000000000e+00 0.0000000000000000e+00  9.9971490964436893e-01 -8.3509784040708337e-05 2.2922633145462052e-05  9.9980402484665942e-01 -9.1207885162621852e-05 -1.0280900138190906e-04  9.9995933278099869e-01 -4.9200514597738936e-05 -2.2336833928890680e-04  1.0001195121542794e+00 1.4742632703409103e-05 -2.7970935176844602e-04  1.0002375467908755e+00 7.8889969017908310e-05 -2.5947220439320122e-04  1.0002619082439075e+00 1.1950887956403010e-04 -1.7575756963928002e-04  1.0001733339548720e+00 1.0220622161324653e-04 -6.9386434778798470e-05  9.9999999957278773e-01 0.0000000000000000e+00 0.0000000000000000e+00  9.9945346039634975e-01 0.0000000000000000e+00 0.0000000000000000e+00  9.9932408824257890e-01 -1.4534988104360355e-04 3.5614194586280616e-05  9.9949612757190931e-01 -1.4129415369295483e-04 -2.7926754327258873e-04  9.9984494853138706e-01 -7.3583745488720739e-05 -5.9261421011067635e-04  1.0002360115484470e+00 1.6573014290421093e-05 -7.4259764586969107e-04  1.0005509638201486e+00 1.0773911891862978e-04 -6.8920434381087735e-04  1.0006633157616018e+00 1.7454026221084003e-04 -4.6677432129142910e-04  1.0004976166947002e+00 1.6474152248434172e-04 -1.8434693311770252e-04  1.0002728565855143e+00 0.0000000000000000e+00 0.0000000000000000e+00  9.9915425362840216e-01 0.0000000000000000e+00 0.0000000000000000e+00  9.9907279993007481e-01 -2.2601564900297729e-04 -3.1915956102426243e-05  9.9931132073100615e-01 -2.1265341495953297e-04 -4.5849420008574235e-04  9.9978431450640337e-01 -1.1257137266489789e-04 -8.7381808681050285e-04  1.0003287730272343e+00 1.3127306305667904e-05 -1.0601681541091764e-03  1.0007782284367184e+00 1.4033333977454211e-04 -9.5616693735578928e-04  1.0009453886205104e+00 2.4046750070337333e-04 -6.1327783532383643e-04  1.0006894343610129e+00 2.4168539357927361e-04 -2.0463558031495537e-04  1.0004881572545783e+00 0.0000000000000000e+00 0.0000000000000000e+00  9.9895614500867835e-01 0.0000000000000000e+00 0.0000000000000000e+00  9.9895487353208900e-01 -2.7991788588024625e-04 -1.4632662984788875e-04  9.9923867357781559e-01 -2.6501617994640741e-04 -6.1847903175007296e-04  9.9976915235082187e-01 -1.4538651957066617e-04 -1.0502184002961531e-03  1.0003866772458940e+00 3.6219421914813157e-06 -1.2179680808062138e-03  1.0009038957175200e+00 1.5450541323270051e-04 -1.0522201551233777e-03  1.0010932030956246e+00 2.7717524656032321e-04 -6.1683685416069600e-04  1.0007550170174986e+00 2.8922659648648061e-04 -1.3846928082295824e-04  1.0006192652972610e+00 0.0000000000000000e+00 0.0000000000000000e+00  9.9890299009728645e-01 0.0000000000000000e+00 0.0000000000000000e+00  9.9896270159479750e-01 -2.8229237748620512e-04 -2.5208601935098501e-04  9.9925804393465034e-01 -2.7318890943315162e-04 -7.1250598466655619e-04  9.9978166135942992e-01 -1.5616968521852420e-04 -1.0988039802657184e-03  1.0003950019721926e+00 -8.3869139343815969e-06 -1.2165579318651483e-03  1.0009163304316222e+00 1.4148042759287236e-04 -1.0005987084378176e-03  1.0011051665078714e+00 2.6520780833600349e-04 -5.1887914839946836e-04  1.0007232469260123e+00 2.8356321970494474e-04 -2.7926198891633743e-05  1.0006641634163034e+00 0.0000000000000000e+00 0.0000000000000000e+00  9.9902591205120417e-01 0.0000000000000000e+00 0.0000000000000000e+00  9.9910098053553409e-01 -2.3318846891116188e-04 -2.9506567606301856e-04  9.9936164390250748e-01 -2.3403879306997422e-04 -6.8758153272885066e-04  9.9981070097205682e-01 -1.4006002721769268e-04 -9.8915462449192617e-04  1.0003403130015729e+00 -1.7581480430631594e-05 -1.0535154526426919e-03  1.0007989697327575e+00 1.0651358244823293e-04 -8.2806600756358227e-04  1.0009708710373952e+00 2.0819051701332774e-04 -3.7239773045376421e-04  1.0006166658991096e+00 2.2476687046817806e-04 6.8956370750962437e-05  1.0006256034264527e+00 0.0000000000000000e+00 0.0000000000000000e+00  9.9932939959562228e-01 0.0000000000000000e+00 0.0000000000000000e+00  9.9937785249445477e-01 -1.5663437810605599e-04 -2.3929965983516906e-04  9.9955583491656608e-01 -1.6784527792628923e-04 -5.0749853144709206e-04  9.9986130145935714e-01 -1.0698736732573643e-04 -6.9957866312786226e-04  1.0002233440392616e+00 -2.1278618465960223e-05 -7.2577677179653296e-04  1.0005419441504806e+00 6.5500887007213982e-05 -5.5225023119122774e-04  1.0006712508616746e+00 1.3242136869129776e-04 -2.1913674092828982e-04  1.0004358383839049e+00 1.3899086755566069e-04 9.6751615508690493e-05  1.0005015397411374e+00 0.0000000000000000e+00 0.0000000000000000e+00  9.9975684798893139e-01 0.0000000000000000e+00 0.0000000000000000e+00  9.9978360159299795e-01 -9.7349750909641683e-05 -9.4693171126798966e-05  9.9985192472023687e-01 -1.1644197051049549e-04 -1.8978129642003449e-04  9.9995611984380595e-01 -8.1554799771074561e-05 -2.5215918992950090e-04  1.0000742525540722e+00 -2.2673611853382949e-05 -2.5414824335622931e-04  1.0001746564067209e+00 3.8159290014935520e-05 -1.8651063974330664e-04  1.0002142638948104e+00 8.0077335895324236e-05 -6.5833865480610361e-05  1.0001526988151270e+00 7.6580531634103794e-05 4.3089471013425142e-05  1.0002886038494097e+00 0.0000000000000000e+00 0.0000000000000000e+00  9.9999999957278785e-01 0.0000000000000000e+00 0.0000000000000000e+00  9.9999999957278785e-01 -9.7349750909641683e-05 0.0000000000000000e+00  9.9999999957278785e-01 -1.1644197051049549e-04 0.0000000000000000e+00  9.9999999957278785e-01 -8.1554799771074561e-05 0.0000000000000000e+00  9.9999999957278785e-01 -2.2673611853382949e-05 0.0000000000000000e+00  9.9999999957278785e-01 3.8159290014935520e-05 0.0000000000000000e+00  9.9999999957278785e-01 8.0077335895324236e-05 0.0000000000000000e+00  9.9999999957278785e-01 7.6580531634103794e-05 0.0000000000000000e+00  9.9999999957278773e-01 2.0225440687826612e-04 0.0000000000000000e+00  9.9979305207307878e-01 0.0000000000000000e+00 0.0000000000000000e+00  9.9963857890123631e-01 -1.1270788279213340e-04 8.0452981461371520e-05  9.9975317434981603e-01 -1.1834089009329847e-04 -1.0965638042765601e-04  9.9993673780436110e-01 -6.1129630834600245e-05 -2.9211876709555701e-04  1.0001179931257671e+00 2.0698285789782651e-05 -3.8793019139031303e-04  1.0002693096348603e+00 1.0157229116585312e-04 -3.8523702087837642e-04  1.0003338720179484e+00 1.5528254291659452e-04 -2.8827716285468821e-04  1.0002337014218479e+00 1.3703834852979511e-04 -1.2980894299602060e-04  9.9999999957278773e-01 0.0000000000000000e+00 0.0000000000000000e+00  9.9941464210849462e-01 0.0000000000000000e+00 0.0000000000000000e+00  9.9915686155463124e-01 -1.9901466203831481e-04 1.4680724173636638e-04  9.9937769455472014e-01 -1.8501972678764558e-04 -3.2951325302361392e-04  9.9979320261290738e-01 -9.1816393770527690e-05 -7.9442404242893456e-04  1.0002387606596084e+00 2.4231137995937542e-05 -1.0285068864503940e-03  1.0006299198115363e+00 1.3971507878308973e-04 -9.9410998897659633e-04  1.0008301106718054e+00 2.2822686024222703e-04 -7.1570255187053834e-04  1.0006406881637009e+00 2.2280000722542560e-04 -3.0078304292030614e-04  1.0003642828115131e+00 0.0000000000000000e+00 0.0000000000000000e+00  9.9906271658948897e-01 0.0000000000000000e+00 0.0000000000000000e+00  9.9886175391699816e-01 -3.0558096819597311e-04 7.3664061113225759e-05  9.9916055183232289e-01 -2.7740261478518267e-04 -5.5920797869844644e-04  9.9971913984022209e-01 -1.4182917898677505e-04 -1.1696180471364313e-03  1.0003394881319587e+00 1.8762345123216712e-05 -1.4586739298203576e-03  1.0008931091937583e+00 1.7931587092934000e-04 -1.3622638270231443e-03  1.0011732694695639e+00 3.1129543337028270e-04 -9.2149548512737646e-04  1.0008691456626020e+00 3.2320445609475555e-04 -3.2381501692293059e-04  1.0006473834478187e+00 0.0000000000000000e+00 0.0000000000000000e+00  9.9881529599302321e-01 0.0000000000000000e+00 0.0000000000000000e+00  9.9872894663645950e-01 -3.7388206916841288e-04 -8.8441400766416176e-05  9.9908128076819891e-01 -3.4416976546579461e-04 -7.7752432405501365e-04  9.9970345858736165e-01 -1.8493645226969193e-04 -1.4065877157775802e-03  1.0004068834353044e+00 3.8476665830693424e-06 -1.6691159388618573e-03  1.0010430762829454e+00 1.9384455918099725e-04 -1.4880423881581679e-03  1.0013543609024917e+00 3.5530014178032562e-04 -9.1667378193737185e-04  1.0009370334093506e+00 3.8310160313824877e-04 -2.1583116836713402e-04  1.0008168459031239e+00 0.0000000000000000e+00 0.0000000000000000e+00  9.9872383093951322e-01 0.0000000000000000e+00 0.0000000000000000e+00  9.9874186840372103e-01 -3.765