<?xml version="1.0"?>
<VTKFile type="UnstructuredGrid"  version="0.1"  >
<UnstructuredGrid>
<Piece  NumberOfPoints="729" NumberOfCells="3072">
<Points>
<DataArray  type="Float64"  NumberOfComponents="3"  format="ascii">0 0 0  0.125 0 0  0.25 0 0  0.375 0 0  0.5 0 0  0.625 0 0  0.75 0 0  0.875 0 0  1 0 0  0 0.125 0  0.125 0.125 0  0.25 0.125 0  0.375 0.125 0  0.5 0.125 0  0.625 0.125 0  0.75 0.125 0  0.875 0.125 0  1 0.125 0  0 0.25 0  0.125 0.25 0  0.25 0.25 0  0.375 0.25 0  0.5 0.25 0  0.625 0.25 0  0.75 0.25 0  0.875 0.25 0  1 0.25 0  0 0.375 0  0.125 0.375 0  0.25 0.375 0  0.375 0.375 0  0.5 0.375 0  0.625 0.375 0  0.75 0.375 0  0.875 0.375 0  1 0.375 0  0 0.5 0  0.125 0.5 0  0.25 0.5 0  0.375 0.5 0  0.5 0.5 0  0.625 0.5 0  0.75 0.5 0  0.875 0.5 0  1 0.5 0  0 0.625 0  0.125 0.625 0  0.25 0.625 0  0.375 0.625 0  0.5 0.625 0  0.625 0.625 0  0.75 0.625 0  0.875 0.625 0  1 0.625 0  0 0.75 0  0.125 0.75 0  0.25 0.75 0  0.375 0.75 0  0.5 0.75 0  0.625 0.75 0  0.75 0.75 0  0.875 0.75 0  1 0.75 0  0 0.875 0  0.125 0.875 0  0.25 0.875 0  0.375 0.875 0  0.5 0.875 0  0.625 0.875 0  0.75 0.875 0  0.875 0.875 0  1 0.875 0  0 1 0  0.125 1 0  0.25 1 0  0.375 1 0  0.5 1 0  0.625 1 0  0.75 1 0  0.875 1 0  1 1 0  0 0 0.125  0.125 0 0.125  0.25 0 0.125  0.375 0 0.125  0.5 0 0.125  0.625 0 0.125  0.75 0 0.125  0.875 0 0.125  1 0 0.125  0 0.125 0.125  0.125 0.125 0.125  0.25 0.125 0.125  0.375 0.125 0.125  0.5 0.125 0.125  0.625 0.125 0.125  0.75 0.125 0.125  0.875 0.125 0.125  1 0.125 0.125  0 0.25 0.125  0.125 0.25 0.125  0.25 0.25 0.125  0.375 0.25 0.125  0.5 0.25 0.125  0.625 0.25 0.125  0.75 0.25 0.125  0.875 0.25 0.125  1 0.25 0.125  0 0.375 0.125  0.125 0.375 0.125  0.25 0.375 0.125  0.375 0.375 0.125  0.5 0.375 0.125  0.625 0.375 0.125  0.75 0.375 0.125  0.875 0.375 0.125  1 0.375 0.125  0 0.5 0.125  0.125 0.5 0.125  0.25 0.5 0.125  0.375 0.5 0.125  0.5 0.5 0.125  0.625 0.5 0.125  0.75 0.5 0.125  0.875 0.5 0.125  1 0.5 0.125  0 0.625 0.125  0.125 0.625 0.125  0.25 0.625 0.125  0.375 0.625 0.125  0.5 0.625 0.125  0.625 0.625 0.125  0.75 0.625 0.125  0.875 0.625 0.125  1 0.625 0.125  0 0.75 0.125  0.125 0.75 0.125  0.25 0.75 0.125  0.375 0.75 0.125  0.5 0.75 0.125  0.625 0.75 0.125  0.75 0.75 0.125  0.875 0.75 0.125  1 0.75 0.125  0 0.875 0.125  0.125 0.875 0.125  0.25 0.875 0.125  0.375 0.875 0.125  0.5 0.875 0.125  0.625 0.875 0.125  0.75 0.875 0.125  0.875 0.875 0.125  1 0.875 0.125  0 1 0.125  0.125 1 0.125  0.25 1 0.125  0.375 1 0.125  0.5 1 0.125  0.625 1 0.125  0.75 1 0.125  0.875 1 0.125  1 1 0.125  0 0 0.25  0.125 0 0.25  0.25 0 0.25  0.375 0 0.25  0.5 0 0.25  0.625 0 0.25  0.75 0 0.25  0.875 0 0.25  1 0 0.25  0 0.125 0.25  0.125 0.125 0.25  0.25 0.125 0.25  0.375 0.125 0.25  0.5 0.125 0.25  0.625 0.125 0.25  0.75 0.125 0.25  0.875 0.125 0.25  1 0.125 0.25  0 0.25 0.25  0.125 0.25 0.25  0.25 0.25 0.25  0.375 0.25 0.25  0.5 0.25 0.25  0.625 0.25 0.25  0.75 0.25 0.25  0.875 0.25 0.25  1 0.25 0.25  0 0.375 0.25  0.125 0.375 0.25  0.25 0.375 0.25  0.375 0.375 0.25  0.5 0.375 0.25  0.625 0.375 0.25  0.75 0.375 0.25  0.875 0.375 0.25  1 0.375 0.25  0 0.5 0.25  0.125 0.5 0.25  0.25 0.5 0.25  0.375 0.5 0.25  0.5 0.5 0.25  0.625 0.5 0.25  0.75 0.5 0.25  0.875 0.5 0.25  1 0.5 0.25  0 0.625 0.25  0.125 0.625 0.25  0.25 0.625 0.25  0.375 0.625 0.25  0.5 0.625 0.25  0.625 0.625 0.25  0.75 0.625 0.25  0.875 0.625 0.25  1 0.625 0.25  0 0.75 0.25  0.125 0.75 0.25  0.25 0.75 0.25  0.375 0.75 0.25  0.5 0.75 0.25  0.625 0.75 0.25  0.75 0.75 0.25  0.875 0.75 0.25  1 0.75 0.25  0 0.875 0.25  0.125 0.875 0.25  0.25 0.875 0.25  0.375 0.875 0.25  0.5 0.875 0.25  0.625 0.875 0.25  0.75 0.875 0.25  0.875 0.875 0.25  1 0.875 0.25  0 1 0.25  0.125 1 0.25  0.25 1 0.25  0.375 1 0.25  0.5 1 0.25  0.625 1 0.25  0.75 1 0.25  0.875 1 0.25  1 1 0.25  0 0 0.375  0.125 0 0.375  0.25 0 0.375  0.375 0 0.375  0.5 0 0.375  0.625 0 0.375  0.75 0 0.375  0.875 0 0.375  1 0 0.375  0 0.125 0.375  0.125 0.125 0.375  0.25 0.125 0.375  0.375 0.125 0.375  0.5 0.125 0.375  0.625 0.125 0.375  0.75 0.125 0.375  0.875 0.125 0.375  1 0.125 0.375  0 0.25 0.375  0.125 0.25 0.375  0.25 0.25 0.375  0.375 0.25 0.375  0.5 0.25 0.375  0.625 0.25 0.375  0.75 0.25 0.375  0.875 0.25 0.375  1 0.25 0.375  0 0.375 0.375  0.125 0.375 0.375  0.25 0.375 0.375  0.375 0.375 0.375  0.5 0.375 0.375  0.625 0.375 0.375  0.75 0.375 0.375  0.875 0.375 0.375  1 0.375 0.375  0 0.5 0.375  0.125 0.5 0.375  0.25 0.5 0.375  0.375 0.5 0.375  0.5 0.5 0.375  0.625 0.5 0.375  0.75 0.5 0.375  0.875 0.5 0.375  1 0.5 0.375  0 0.625 0.375  0.125 0.625 0.375  0.25 0.625 0.375  0.375 0.625 0.375  0.5 0.625 0.375  0.625 0.625 0.375  0.75 0.625 0.375  0.875 0.625 0.375  1 0.625 0.375  0 0.75 0.375  0.125 0.75 0.375  0.25 0.75 0.375  0.375 0.75 0.375  0.5 0.75 0.375  0.625 0.75 0.375  0.75 0.75 0.375  0.875 0.75 0.375  1 0.75 0.375  0 0.875 0.375  0.125 0.875 0.375  0.25 0.875 0.375  0.375 0.875 0.375  0.5 0.875 0.375  0.625 0.875 0.375  0.75 0.875 0.375  0.875 0.875 0.375  1 0.875 0.375  0 1 0.375  0.125 1 0.375  0.25 1 0.375  0.375 1 0.375  0.5 1 0.375  0.625 1 0.375  0.75 1 0.375  0.875 1 0.375  1 1 0.375  0 0 0.5  0.125 0 0.5  0.25 0 0.5  0.375 0 0.5  0.5 0 0.5  0.625 0 0.5  0.75 0 0.5  0.875 0 0.5  1 0 0.5  0 0.125 0.5  0.125 0.125 0.5  0.25 0.125 0.5  0.375 0.125 0.5  0.5 0.125 0.5  0.625 0.125 0.5  0.75 0.125 0.5  0.875 0.125 0.5  1 0.125 0.5  0 0.25 0.5  0.125 0.25 0.5  0.25 0.25 0.5  0.375 0.25 0.5  0.5 0.25 0.5  0.625 0.25 0.5  0.75 0.25 0.5  0.875 0.25 0.5  1 0.25 0.5  0 0.375 0.5  0.125 0.375 0.5  0.25 0.375 0.5  0.375 0.375 0.5  0.5 0.375 0.5  0.625 0.375 0.5  0.75 0.375 0.5  0.875 0.375 0.5  1 0.375 0.5  0 0.5 0.5  0.125 0.5 0.5  0.25 0.5 0.5  0.375 0.5 0.5  0.5 0.5 0.5  0.625 0.5 0.5  0.75 0.5 0.5  0.875 0.5 0.5  1 0.5 0.5  0 0.625 0.5  0.125 0.625 0.5  0.25 0.625 0.5  0.375 0.625 0.5  0.5 0.625 0.5  0.625 0.625 0.5  0.75 0.625 0.5  0.875 0.625 0.5  1 0.625 0.5  0 0.75 0.5  0.125 0.75 0.5  0.25 0.75 0.5  0.375 0.75 0.5  0.5 0.75 0.5  0.625 0.75 0.5  0.75 0.75 0.5  0.875 0.75 0.5  1 0.75 0.5  0 0.875 0.5  0.125 0.875 0.5  0.25 0.875 0.5  0.375 0.875 0.5  0.5 0.875 0.5  0.625 0.875 0.5  0.75 0.875 0.5  0.875 0.875 0.5  1 0.875 0.5  0 1 0.5  0.125 1 0.5  0.25 1 0.5  0.375 1 0.5  0.5 1 0.5  0.625 1 0.5  0.75 1 0.5  0.875 1 0.5  1 1 0.5  0 0 0.625  0.125 0 0.625  0.25 0 0.625  0.375 0 0.625  0.5 0 0.625  0.625 0 0.625  0.75 0 0.625  0.875 0 0.625  1 0 0.625  0 0.125 0.625  0.125 0.125 0.625  0.25 0.125 0.625  0.375 0.125 0.625  0.5 0.125 0.625  0.625 0.125 0.625  0.75 0.125 0.625  0.875 0.125 0.625  1 0.125 0.625  0 0.25 0.625  0.125 0.25 0.625  0.25 0.25 0.625  0.375 0.25 0.625  0.5 0.25 0.625  0.625 0.25 0.625  0.75 0.25 0.625  0.875 0.25 0.625  1 0.25 0.625  0 0.375 0.625  0.125 0.375 0.625  0.25 0.375 0.625  0.375 0.375 0.625  0.5 0.375 0.625  0.625 0.375 0.625  0.75 0.375 0.625  0.875 0.375 0.625  1 0.375 0.625  0 0.5 0.625  0.125 0.5 0.625  0.25 0.5 0.625  0.375 0.5 0.625  0.5 0.5 0.625  0.625 0.5 0.625  0.75 0.5 0.625  0.875 0.5 0.625  1 0.5 0.625  0 0.625 0.625  0.125 0.625 0.625  0.25 0.625 0.625  0.375 0.625 0.625  0.5 0.625 0.625  0.625 0.625 0.625  0.75 0.625 0.625  0.875 0.625 0.625  1 0.625 0.625  0 0.75 0.625  0.125 0.75 0.625  0.25 0.75 0.625  0.375 0.75 0.625  0.5 0.75 0.625  0.625 0.75 0.625  0.75 0.75 0.625  0.875 0.75 0.625  1 0.75 0.625  0 0.875 0.625  0.125 0.875 0.625  0.25 0.875 0.625  0.375 0.875 0.625  0.5 0.875 0.625  0.625 0.875 0.625  0.75 0.875 0.625  0.875 0.875 0.625  1 0.875 0.625  0 1 0.625  0.125 1 0.625  0.25 1 0.625  0.375 1 0.625  0.5 1 0.625  0.625 1 0.625  0.75 1 0.625  0.875 1 0.625  1 1 0.625  0 0 0.75  0.125 0 0.75  0.25 0 0.75  0.375 0 0.75  0.5 0 0.75  0.625 0 0.75  0.75 0 0.75  0.875 0 0.75  1 0 0.75  0 0.125 0.75  0.125 0.125 0.75  0.25 0.125 0.75  0.375 0.125 0.75  0.5 0.125 0.75  0.625 0.125 0.75  0.75 0.125 0.75  0.875 0.125 0.75  1 0.125 0.75  0 0.25 0.75  0.125 0.25 0.75  0.25 0.25 0.75  0.375 0.25 0.75  0.5 0.25 0.75  0.625 0.25 0.75  0.75 0.25 0.75  0.875 0.25 0.75  1 0.25 0.75  0 0.375 0.75  0.125 0.375 0.75  0.25 0.375 0.75  0.375 0.375 0.75  0.5 0.375 0.75  0.625 0.375 0.75  0.75 0.375 0.75  0.875 0.375 0.75  1 0.375 0.75  0 0.5 0.75  0.125 0.5 0.75  0.25 0.5 0.75  0.375 0.5 0.75  0.5 0.5 0.75  0.625 0.5 0.75  0.75 0.5 0.75  0.875 0.5 0.75  1 0.5 0.75  0 0.625 0.75  0.125 0.625 0.75  0.25 0.625 0.75  0.375 0.625 0.75  0.5 0.625 0.75  0.625 0.625 0.75  0.75 0.625 0.75  0.875 0.625 0.75  1 0.625 0.75  0 0.75 0.75  0.125 0.75 0.75  0.25 0.75 0.75  0.375 0.75 0.75  0.5 0.75 0.75  0.625 0.75 0.75  0.75 0.75 0.75  0.875 0.75 0.75  1 0.75 0.75  0 0.875 0.75  0.125 0.875 0.75  0.25 0.875 0.75  0.375 0.875 0.75  0.5 0.875 0.75  0.625 0.875 0.75  0.75 0.875 0.75  0.875 0.875 0.75  1 0.875 0.75  0 1 0.75  0.125 1 0.75  0.25 1 0.75  0.375 1 0.75  0.5 1 0.75  0.625 1 0.75  0.75 1 0.75  0.875 1 0.75  1 1 0.75  0 0 0.875  0.125 0 0.875  0.25 0 0.875  0.375 0 0.875  0.5 0 0.875  0.625 0 0.875  0.75 0 0.875  0.875 0 0.875  1 0 0.875  0 0.125 0.875  0.125 0.125 0.875  0.25 0.125 0.875  0.375 0.125 0.875  0.5 0.125 0.875  0.625 0.125 0.875  0.75 0.125 0.875  0.875 0.125 0.875  1 0.125 0.875  0 0.25 0.875  0.125 0.25 0.875  0.25 0.25 0.875  0.375 0.25 0.875  0.5 0.25 0.875  0.625 0.25 0.875  0.75 0.25 0.875  0.875 0.25 0.875  1 0.25 0.875  0 0.375 0.875  0.125 0.375 0.875  0.25 0.375 0.875  0.375 0.375 0.875  0.5 0.375 0.875  0.625 0.375 0.875  0.75 0.375 0.875  0.875 0.375 0.875  1 0.375 0.875  0 0.5 0.875  0.125 0.5 0.875  0.25 0.5 0.875  0.375 0.5 0.875  0.5 0.5 0.875  0.625 0.5 0.875  0.75 0.5 0.875  0.875 0.5 0.875  1 0.5 0.875  0 0.625 0.875  0.125 0.625 0.875  0.25 0.625 0.875  0.375 0.625 0.875  0.5 0.625 0.875  0.625 0.625 0.875  0.75 0.625 0.875  0.875 0.625 0.875  1 0.625 0.875  0 0.75 0.875  0.125 0.75 0.875  0.25 0.75 0.875  0.375 0.75 0.875  0.5 0.75 0.875  0.625 0.75 0.875  0.75 0.75 0.875  0.875 0.75 0.875  1 0.75 0.875  0 0.875 0.875  0.125 0.875 0.875  0.25 0.875 0.875  0.375 0.875 0.875  0.5 0.875 0.875  0.625 0.875 0.875  0.75 0.875 0.875  0.
[...]
<PointData  Vectors="f_1660"> 
<DataArray  type="Float64"  Name="f_1660"  NumberOfComponents="3" format="ascii">9.9964298969292220e-01 0.0000000000000000e+00 0.0000000000000000e+00  9.9979144524048436e-01 0.0000000000000000e+00 -2.2798987558220345e-04  9.9958004829722902e-01 0.0000000000000000e+00 -1.3643910619202029e-04  1.0000827777724435e+00 0.0000000000000000e+00 -2.5643206513301450e-04  1.0005685942214944e+00 0.0000000000000000e+00 -2.0035670636408100e-04  9.9965548342755262e-01 0.0000000000000000e+00 2.4819230994395722e-04  1.0003736484108430e+00 0.0000000000000000e+00 4.2460940401347814e-05  9.9977171799247155e-01 0.0000000000000000e+00 5.0046950714345030e-04  9.9999996288101378e-01 0.0000000000000000e+00 0.0000000000000000e+00  9.9992553930067285e-01 0.0000000000000000e+00 0.0000000000000000e+00  9.9960695784715192e-01 0.0000000000000000e+00 -2.1165254936599258e-04  1.0001107239138676e+00 0.0000000000000000e+00 -6.8987531051737977e-04  1.0004636266108924e+00 0.0000000000000000e+00 -5.6158665080243786e-04  1.0001208095055278e+00 0.0000000000000000e+00 -1.9285205705925877e-04  1.0003348110533494e+00 0.0000000000000000e+00 4.4321084203691977e-05  9.9996113459537672e-01 0.0000000000000000e+00 4.4698052981546410e-04  1.0000595843815792e+00 0.0000000000000000e+00 1.0911066926179235e-04  9.9999996288101345e-01 0.0000000000000000e+00 0.0000000000000000e+00  9.9975305050255081e-01 0.0000000000000000e+00 0.0000000000000000e+00  9.9999302437444759e-01 0.0000000000000000e+00 -3.9075199576053214e-04  9.9956972565872637e-01 0.0000000000000000e+00 -4.7615665083571495e-04  1.0000176406382224e+00 0.0000000000000000e+00 -7.9315153175533667e-04  1.0004958763554608e+00 0.0000000000000000e+00 -6.9159529796266044e-04  9.9971014991804052e-01 0.0000000000000000e+00 5.4030981551792586e-06  1.0008480687694397e+00 0.0000000000000000e+00 -3.2648142416087005e-04  9.9999615386839036e-01 0.0000000000000000e+00 3.9798265413338967e-04  9.9999996288101345e-01 0.0000000000000000e+00 0.0000000000000000e+00  9.9994665689374429e-01 0.0000000000000000e+00 0.0000000000000000e+00  9.9942437832859898e-01 0.0000000000000000e+00 -1.1294875269910270e-04  9.9983587362278581e-01 0.0000000000000000e+00 -6.4955630101903004e-04  9.9955790581721427e-01 0.0000000000000000e+00 -6.7313840646700902e-04  1.0000953702860940e+00 0.0000000000000000e+00 -1.1646306593161258e-03  1.0008778856468976e+00 0.0000000000000000e+00 -1.0753466039310244e-03  1.0004188128415634e+00 0.0000000000000000e+00 -1.4462258974315282e-04  9.9999667512656876e-01 0.0000000000000000e+00 3.9220743468822378e-04  9.9999996288101345e-01 0.0000000000000000e+00 0.0000000000000000e+00  9.9938212199188414e-01 0.0000000000000000e+00 0.0000000000000000e+00  1.0001957059151827e+00 0.0000000000000000e+00 -6.8042911583129743e-04  9.9932895960591583e-01 0.0000000000000000e+00 -3.9060157979965563e-04  9.9996306601123586e-01 0.0000000000000000e+00 -9.9025885415685976e-04  1.0001818347140985e+00 0.0000000000000000e+00 -1.2466509586769358e-03  1.0007302792810000e+00 0.0000000000000000e+00 -1.0367951115897724e-03  1.0007008979619432e+00 0.0000000000000000e+00 -3.6861221993822674e-04  1.0000416607130227e+00 0.0000000000000000e+00 2.1717667095127243e-04  9.9999996288101345e-01 0.0000000000000000e+00 0.0000000000000000e+00  9.9942197532485633e-01 0.0000000000000000e+00 0.0000000000000000e+00  9.9953049401555860e-01 0.0000000000000000e+00 -4.3849973852660106e-04  1.0002439197224640e+00 0.0000000000000000e+00 -6.7481040715492032e-04  9.9957242955349690e-01 0.0000000000000000e+00 -3.1132611994062358e-04  1.0000063985289347e+00 0.0000000000000000e+00 -7.3906488905433525e-04  1.0003104104495559e+00 0.0000000000000000e+00 -6.4000607083052584e-04  1.0005292245504309e+00 0.0000000000000000e+00 -3.5010452355838757e-04  1.0002512578046998e+00 0.0000000000000000e+00 1.6034706175258517e-04  9.9999996288101345e-01 0.0000000000000000e+00 0.0000000000000000e+00  9.9939595617215260e-01 0.0000000000000000e+00 0.0000000000000000e+00  9.9992485375953399e-01 0.0000000000000000e+00 -5.3762765433405693e-04  9.9991850687634609e-01 0.0000000000000000e+00 -6.4784408241916997e-04  1.0001101218790269e+00 0.0000000000000000e+00 -6.0664249056506807e-04  1.0004393528090618e+00 0.0000000000000000e+00 -5.6357842586748713e-04  1.0004899976285975e+00 0.0000000000000000e+00 -5.1277002716587042e-04  1.0004342728529794e+00 0.0000000000000000e+00 -2.3592562413739381e-04  1.0001539697779345e+00 0.0000000000000000e+00 2.6411592680564068e-04  9.9999996288101345e-01 0.0000000000000000e+00 0.0000000000000000e+00  9.9989480578518308e-01 0.0000000000000000e+00 0.0000000000000000e+00  9.9984100088341021e-01 0.0000000000000000e+00 -1.2500040739430220e-05  9.9992618168089309e-01 0.0000000000000000e+00 -2.5858898664859060e-04  1.0001567459122520e+00 0.0000000000000000e+00 -2.2704509802781988e-04  9.9997706095292138e-01 0.0000000000000000e+00 1.3904222661003865e-04  9.9985693914042695e-01 0.0000000000000000e+00 5.5316891571739393e-06  1.0001649330629614e+00 0.0000000000000000e+00 -2.6782791376792861e-04  1.0002524283548815e+00 0.0000000000000000e+00 -7.9452126916647098e-05  9.9999996288101345e-01 0.0000000000000000e+00 0.0000000000000000e+00  9.9999996288101378e-01 0.0000000000000000e+00 0.0000000000000000e+00  9.9999996288101378e-01 0.0000000000000000e+00 0.0000000000000000e+00  9.9999996288101378e-01 0.0000000000000000e+00 0.0000000000000000e+00  9.9999996288101378e-01 0.0000000000000000e+00 0.0000000000000000e+00  9.9999996288101378e-01 0.0000000000000000e+00 0.0000000000000000e+00  9.9999996288101378e-01 0.0000000000000000e+00 0.0000000000000000e+00  9.9999996288101378e-01 0.0000000000000000e+00 0.0000000000000000e+00  9.9999996288101378e-01 0.0000000000000000e+00 0.0000000000000000e+00  9.9999996288101378e-01 0.0000000000000000e+00 0.0000000000000000e+00  9.9990106303220361e-01 0.0000000000000000e+00 0.0000000000000000e+00  9.9946248976027718e-01 -1.0420373901515404e-04 1.1635927097977005e-04  9.9992983241097477e-01 -8.0349671060052334e-05 -3.8311385991954912e-04  1.0004016336372525e+00 -1.9685384932594202e-04 -2.1117996457111003e-04  9.9980002722279016e-01 -1.2976255324278937e-05 -1.1392805698032829e-05  1.0001134285081252e+00 3.2676692383428244e-04 -4.4952277214827473e-04  1.0001818411324290e+00 6.6642243874326864e-05 7.0369033045652142e-05  1.0002781833066701e+00 5.1945438912451411e-04 -4.6857087798101647e-04  9.9999996288101345e-01 0.0000000000000000e+00 0.0000000000000000e+00  9.9958173598728850e-01 0.0000000000000000e+00 0.0000000000000000e+00  9.9950578659441014e-01 -1.5090246498986341e-04 -1.1323129398173174e-04  9.9899046193677044e-01 -5.6513334499951713e-04 2.3410402947680983e-04  9.9958159649134193e-01 -1.9016465075772916e-04 -3.9438088754222906e-04  1.0004932753865563e+00 3.4261296169161600e-04 -9.3161888301364782e-04  9.9973184510090141e-01 -7.6612729863588828e-05 -2.0496520778699609e-04  1.0011314356559435e+00 5.6970899889239321e-04 -1.0307405618646547e-03  1.0001622741625631e+00 1.5646112235698985e-05 -5.7452661752767931e-05  9.9992717282748789e-01 0.0000000000000000e+00 0.0000000000000000e+00  9.9954671455586941e-01 0.0000000000000000e+00 0.0000000000000000e+00  9.9878601300109771e-01 -6.7050037670095307e-04 1.5007377556814380e-04  9.9964739735165331e-01 -2.0201395023023425e-04 -8.3701881696717471e-04  9.9997276310864747e-01 2.6012353639374099e-05 -8.4299511070554914e-04  1.0000490902775578e+00 2.5030608196177629e-04 -9.5012554753321475e-04  1.0007565328413852e+00 8.2131270345545365e-04 -1.4446271082780740e-03  1.0006968991679419e+00 -3.4732081017256698e-04 -3.9072500869410769e-04  1.0010304678762341e+00 3.6269477550626239e-04 -6.6706299740148189e-04  1.0003597960160944e+00 0.0000000000000000e+00 0.0000000000000000e+00  9.9888035156149058e-01 0.0000000000000000e+00 0.0000000000000000e+00  9.9933910447445029e-01 -1.0774222639378330e-04 -5.9470315158800975e-04  9.9899133914600380e-01 -5.3130832101690455e-04 -4.2796363087472579e-04  9.9971986968098969e-01 5.6418090139616535e-04 -1.4963906181962626e-03  1.0001072735626741e+00 1.0512981279747582e-04 -1.1436800343891035e-03  1.0002645274983832e+00 -3.8360633332754052e-04 -9.3923467485212075e-04  1.0010929045516894e+00 3.8983006223225713e-05 -8.8270305813853412e-04  1.0007273946817485e+00 -1.5353979496330599e-04 -2.9387486449167623e-04  1.0001198692345996e+00 0.0000000000000000e+00 0.0000000000000000e+00  9.9927752437597794e-01 0.0000000000000000e+00 0.0000000000000000e+00  9.9858946944274873e-01 -5.1183559553790500e-04 -6.7698717907949059e-05  9.9945871585260648e-01 2.4780665698886039e-04 -1.3407622762975123e-03  9.9969229755213240e-01 -1.4563220433411541e-04 -1.1222721982325412e-03  1.0000212620442888e+00 2.6927953794336231e-05 -1.2919024620602309e-03  1.0009357842320934e+00 9.0072892322571980e-05 -1.0160509379218239e-03  1.0003453804079290e+00 1.1691830422847461e-04 -1.0783905344028953e-04  1.0006186803213817e+00 3.6878576034162056e-04 -3.7572670737758191e-04  1.0001493857854145e+00 0.0000000000000000e+00 0.0000000000000000e+00  9.9918760909259674e-01 0.0000000000000000e+00 0.0000000000000000e+00  9.9952088066655720e-01 1.8552899058417484e-04 -6.3739699675233435e-04  9.9933406659804691e-01 -1.4812718415592007e-04 -8.7441935122999006e-04  1.0004447225467132e+00 3.3485200928544623e-04 -1.5062642552168856e-03  1.0001644588547955e+00 1.7187236758589526e-04 -1.0919449432810781e-03  1.0009905278412754e+00 1.2337282831075534e-04 -7.4593685552620348e-04  1.0005408630852619e+00 3.0743363978623687e-04 -2.2239606814311434e-05  1.0004854953084716e+00 5.0109393386394387e-05 6.2389198495233896e-05  1.0002526809064751e+00 0.0000000000000000e+00 0.0000000000000000e+00  9.9881422053794933e-01 0.0000000000000000e+00 0.0000000000000000e+00  9.9938889168348366e-01 -3.1788258494839031e-04 -5.7571418112861619e-04  1.0000593890185541e+00 -2.7618456535296232e-04 -1.1649036597452911e-03  9.9988297915903002e-01 -5.8950953588807989e-04 -5.3236427728232656e-04  1.0002228786907723e+00 8.0045836407690487e-05 -1.0283841419448244e-03  1.0003086014957097e+00 -3.3953294236733887e-05 -5.4861326765081762e-04  1.0007545517967433e+00 7.4333870915171464e-06 -2.7676291144510841e-04  1.0000176371024661e+00 1.0917701756333269e-04 4.0269458324265463e-04  1.0003982701982121e+00 0.0000000000000000e+00 0.0000000000000000e+00  9.9966993346933819e-01 0.0000000000000000e+00 0.0000000000000000e+00  9.9992103257780163e-01 -3.8969220417629053e-05 -1.7805031693153540e-04  1.0001101923079674e+00 -1.3344897934859781e-04 -5.0765391972967312e-04  1.0003712138840313e+00 5.5967220843865250e-06 -4.6695773950151801e-04  1.0003208566016983e+00 1.9369906042116992e-04 -4.7970832109744813e-04  1.0002307255842868e+00 1.7097626861124074e-04 -6.5670753344445405e-05  1.0001849653642010e+00 5.2355050728994941e-05 6.7927951810968897e-05  1.0001776774104547e+00 1.7258775469185391e-04 5.5540047857880744e-05  1.0004193766363860e+00 0.0000000000000000e+00 0.0000000000000000e+00  9.9999996288101378e-01 0.0000000000000000e+00 0.0000000000000000e+00  9.9999996288101378e-01 -3.8969220417629053e-05 0.0000000000000000e+00  9.9999996288101378e-01 -1.3344897934859781e-04 0.0000000000000000e+00  9.9999996288101378e-01 5.5967220843865250e-06 0.0000000000000000e+00  9.9999996288101378e-01 1.9369906042116992e-04 0.0000000000000000e+00  9.9999996288101378e-01 1.7097626861124074e-04 0.0000000000000000e+00  9.9999996288101378e-01 5.2355050728994941e-05 0.0000000000000000e+00  9.9999996288101378e-01 1.7258775469185391e-04 0.0000000000000000e+00  9.9999996288101345e-01 3.1278450715888084e-04 0.0000000000000000e+00  9.9992648164287645e-01 0.0000000000000000e+00 0.0000000000000000e+00  9.9965389720955822e-01 1.0975907674827415e-04 -8.2475092552631234e-05  9.9981193850801453e-01 -3.1308145204599780e-04 1.0968473505975162e-04  9.9958925953087618e-01 -1.1123846355462896e-04 -1.4531674790191037e-04  1.0007487107797202e+00 1.1850516649601397e-04 -7.3331459129946826e-04  9.9949669915193851e-01 -1.0179571641011625e-04 2.1932592359953705e-04  1.0009909686308223e+00 1.1515658010335484e-04 -7.0297772886945191e-04  1.0001096501420770e+00 -3.0229714211642571e-05 -2.2022779719780976e-05  9.9999996288101345e-01 0.0000000000000000e+00 0.0000000000000000e+00  9.9952718695165166e-01 0.0000000000000000e+00 0.0000000000000000e+00  9.9878828281620102e-01 -5.0622566762996359e-04 2.2273221447933306e-04  9.9940507272131995e-01 -4.5464279719913272e-05 -7.7233633836061057e-04  9.9966880151992321e-01 1.0842629430691985e-04 -7.9605968514103039e-04  9.9997025469154199e-01 -1.0965325544589010e-04 -5.5236162381329921e-04  1.0010771403764644e+00 6.0654395455961687e-04 -1.2088859088201533e-03  1.0005575782311136e+00 -3.4441480513935506e-04 -2.9652019426078496e-05  1.0011812566649116e+00 3.1499206712061147e-04 -6.4855940595881165e-04  1.0006097045214133e+00 0.0000000000000000e+00 0.0000000000000000e+00  9.9781106499460892e-01 0.0000000000000000e+00 0.0000000000000000e+00  9.9898183310744082e-01 -2.2671440484446919e-04 -9.2031272078233243e-04  9.9891350204604512e-01 -7.4718995521512325e-04 -8.8237329364946639e-04  9.9989374338428505e-01 -4.3534922186913333e-06 -1.8835750866860485e-03  1.0008389251064169e+00 5.6007303509158753e-04 -1.5766811303010572e-03  9.9941811092782706e-01 4.7895451178766441e-05 -2.2914177903150947e-04  1.0017950276434990e+00 6.3674477942718432e-04 -1.0737005126484288e-03  1.0011666580990299e+00 4.7878634528116903e-05 -6.1530611426475112e-05  1.0006855160657611e+00 0.0000000000000000e+00 0.0000000000000000e+00  9.9815400037217339e-01 0.0000000000000000e+00 0.0000000000000000e+00  9.9781830376593206e-01 -5.9410080908332591e-04 -1.6175174132940706e-04  1.0000379684218264e+00 2.0859277608923044e-04 -2.2972434568688674e-03  9.9983630409754132e-01 -9.6253677217048120e-05 -1.9730178109603150e-03  1.0004500629044299e+00 1.2713320423811473e-04 -2.2181647116063111e-03  1.0011102831001757e+00 4.7801441787238570e-04 -1.7196176848780309e-03  1.0011119545889120e+00 -1.2252526525715187e-04 -5.6154137016844628e-04  1.0016694085872981e+00 6.5880850645359010e-04 -6.9016592641141998e-04  1.0012182003807528e+00 0.0000000000000000e+00 0.0000000000000000e+00  9.9811524158134801e-01 0.0000000000000000e+00 0.0000000000000000e+00  9.9893021946378335e-01 3.0200364964315038e-05 -1.0078106683881816e-03  9.9808436243450760e-01 -6.6383480477353327e-04 -1.1577315309697581e-03  1.0004471271689661e+00 4.8416756244436910e-05 -2.9904954395570402e-03  1.0004690866129746e+00 2.5452661990281016e-04 -2.4061161913321973e-03  1.0011280371336220e+00 2.2425767944033511e-04 -1.3540078319834803e-03  1.0012923113744723e+00 1.1128889171559810e-03 -8.6137332687518655e-04  1.0010446467164003e+00 3.7091167642407276e-04 1.5340520802610661e-04  1.0010050540639601e+00 0.0000000000000000e+00 0.0000000000000000e+00  9.9933706020088497e-01 0.0000000000000000e+00 0.0000000000000000e+00  9.9840656399932992e-01 -4.8732483153444658e-04 -3.9000874653844875e-05  9.9912974622930362e-01 2.9696713143079439e-04 -1.5896736978113022e-03  9.9966192354340777e-01 -2.7772910178402809e-04 -1.8143651615545621e-03  1.0003612295761024e+00 5.0579619333835475e-04 -2.1883411520117833e-03  1.0010298879807922e+00 5.7308841360879600e-04 -1.1578830533443326e-03  1.0006819832591336e+00 7.3908870618876322e-04 -4.2441352628695250e-04  1.0008037958415115e+00 4.4095964564178785e-04 1.4016812251636866e-04  1.0009284535707106e+00 0.0000000000000000e+00 0.0000000000000000e+00  9.9872060925167017e-01 0.0000000000000000e+00 0.0000000000000000e+00  9.9950791477497958e-01 -5.8832530465002309e-04 -6.2446847164789455e-04  9.9930845974315741e-01 -8.8092378269070287e-04 -9.3214451529946324e-04  1.0002348318403544e+00 -2.1881399431936344e-04 -1.5017271981871087e-03  9.9995580308364440e-01 -1.1325660900583998e-04 -9.0236936343854161e-04  1.0008787284883245e+00 3.1507096909743509e-04 -9.0761419388212309e-04  1.0007368932306082e+00 2.0728942793121915e-05 -3.5496938203377049e-05  1.0003625416863016e+00 4.9106310479834754e-04 1.4459327973687726e-04  1.0006385298680998e+00 0.0000000000000000e+00 0.0000000000000000e+00  9.9975696421686688e-01 0.0000000000000000e+00 0.0000000000000000e+00  9.9971328022101702e-01 -1.7195635728467734e-04 -1.4607552614387886e-04  1.0000169891606661e+00 -2.5851820628425206e-04 -5.9328429939722351e-04  1.0000486223983738e+00 -3.1127318641449618e-04 -4.7083517883408043e-04  1.0000829840423544e+00 -1.3782546899211877e-05 -4.5047519472486886e-04  1.0001731455343423e+00 2.6353394422494366e-04 -4.0751953734824333e-04  1.0001022661137093e+00 6.0744796783337795e-05 -1.6204402936289175e-04  1.0000797553284777e+00 1.7549337319296089e-04 1.0892022437687139e-04  1.0002620713778039e+00 0.0000000000000000e+00 0.0000000000000000e+00  9.9999996288101378e-01 0.0000000000000000e+00 0.0000000000000000e+00  9.9999996288101378e-01 -1.7195635728467734e-04 0.0000000000000000e+00  9.9999996288101378e-01 -2.5851820628425206e-04 0.0000000000000000e+00  9.9999996288101378e-01 -3.1127318641449618e-04 0.0000000000000000e+00  9.9999996288101378e-01 -1.3782546899211877e-05 0.0000000000000000e+00  9.9999996288101378e-01 2.6353394422494366e-04 0.0000000000000000e+00  9.9999996288101378e-01 6.0744796783337795e-05 0.0000000000000000e+00  9.9999996288101378e-01 1.7549337319296089e-04 0.0000000000000000e+00  9.9999996288101345e-01 3.2601953861588484e-04 0.0000000000000000e+00  1.0001164024709659e+00 0.0000000000000000e+00 0.0000000000000000e+00  9.9926800128913329e-01 -2.8826796789137706e-05 3.3949258658032657e-04  9.9968311386648634e-01 -4.1901175702995872e-05 -7.8651098662408175e-05  9.9958638036091052e-01 4.1642348194488073e-06 -3.0216485676487660e-04  9.9977444973151086e-01 -3.0061013110165165e-04 -2.6292858617788753e-04  1.0007521790948544e+00 3.8779544812140763e-04 -1.1515603793440187e-03  1.0002494971857401e+00 -2.9261879763295244e-04 1.1245422801204238e-04  1.0005115584337565e+00 2.0207392407895359e-04 -3.5694061889243468e-04  9.9999996288101345e-01 0.0000000000000000e+00 0.0000000000000000e+00  9.9920383701782389e-01 0.0000000000000000e+00 0.0000000000000000e+00  9.9883953368064760e-01 -2.2040408556798680e-04 -3.2915504486059324e-06  9.9941550859870509e-01 -4.1066665874356172e-04 -5.1851868613942906e-04  9.9934425886297795e-01 2.4250913630926820e-05 -1.0010593594103299e-03  1.0006954847580583e+00 1.9630536059088489e-04 -1.6045669350375235e-03  1.0002141139743563e+00 -6.1745922622123337e-04 -8.2510016805501082e-04  1.0014585275075605e+00 4.5812623604684093e-04 -1.5822297686308761e-03  1.0013947897313289e+00 -6.3355631160398780e-04 -1.8046779347479229e-04  1.0003098170710116e+00 0.0000000000000000e+00 0.0000000000000000e+00  9.9823842691882902e-01 0.0000000000000000e+00 0.0000000000000000e+00  9.9748573857636069e-01 -1.1324178065451388e-03 7.1303952354135106e-04  9.9997355902815055e-01 -4.3625702847483811e-04 -1.8292533385175559e-03  1.0001565499983061e+00 -6.5533546194037002e-04 -1.5277226518154627e-03  9.9993488217303927e-01 -2.6990225243214011e-04 -1.7731288319584454e-03  1.0010551530126546e+00 1.0431355615016966e-03 -2.5823806378102499e-03  1.0012070948204157e+00 -2.5407373222844325e-04 -8.9833896190848975e-04  1.0020991053872126e+00 7.5210322656565605e-04 -9.7321886886270897e-04  1.0014684651219958e+00 0.0000000000000000e+00 0.0000000000000000e+00  9.9792102613802180e-01 0.0000000000000000e+00 0.0000000000000000e+00  9.9733937211024870e-01 2.2878209968069183e-04 3.6151693029092013e-05  9.9849285743144101e-01 -1.0345361303410456e-03 -9.5888789391366819e-04  9.9986613011066605e-01 8.7793594097311430e-05 -2.6371375070282478e-03  1.0002932293409363e+00 2.0731131889522993e-05 -2.3937636609961746e-03  1.0001103241417895e+00 -5.2132314377045536e-04 -1.6679001488524789e-03  1.0019233925798705e+00 8.9105406591566687e-04 -1.6881294477673792e-03  1.0018507026639871e+00 -6.7477058743613087e-05 -8.2508615688048847e-05  1.0013539939536513e+00 0.0000000000000000e+00 0.0000000000000000e+00  9.9892879413598168e-01 0.0000000000000000e+00 0.0000000000000000e+00  9.9680940482687785e-01 -1.1332433974654325e-03 7.65315