<?xml version="1.0"?>
<VTKFile type="UnstructuredGrid"  version="0.1"  >
<UnstructuredGrid>
<Piece  NumberOfPoints="729" NumberOfCells="3072">
<Points>
<DataArray  type="Float64"  NumberOfComponents="3"  format="ascii">0 0 0  0.125 0 0  0.25 0 0  0.375 0 0  0.5 0 0  0.625 0 0  0.75 0 0  0.875 0 0  1 0 0  0 0.125 0  0.125 0.125 0  0.25 0.125 0  0.375 0.125 0  0.5 0.125 0  0.625 0.125 0  0.75 0.125 0  0.875 0.125 0  1 0.125 0  0 0.25 0  0.125 0.25 0  0.25 0.25 0  0.375 0.25 0  0.5 0.25 0  0.625 0.25 0  0.75 0.25 0  0.875 0.25 0  1 0.25 0  0 0.375 0  0.125 0.375 0  0.25 0.375 0  0.375 0.375 0  0.5 0.375 0  0.625 0.375 0  0.75 0.375 0  0.875 0.375 0  1 0.375 0  0 0.5 0  0.125 0.5 0  0.25 0.5 0  0.375 0.5 0  0.5 0.5 0  0.625 0.5 0  0.75 0.5 0  0.875 0.5 0  1 0.5 0  0 0.625 0  0.125 0.625 0  0.25 0.625 0  0.375 0.625 0  0.5 0.625 0  0.625 0.625 0  0.75 0.625 0  0.875 0.625 0  1 0.625 0  0 0.75 0  0.125 0.75 0  0.25 0.75 0  0.375 0.75 0  0.5 0.75 0  0.625 0.75 0  0.75 0.75 0  0.875 0.75 0  1 0.75 0  0 0.875 0  0.125 0.875 0  0.25 0.875 0  0.375 0.875 0  0.5 0.875 0  0.625 0.875 0  0.75 0.875 0  0.875 0.875 0  1 0.875 0  0 1 0  0.125 1 0  0.25 1 0  0.375 1 0  0.5 1 0  0.625 1 0  0.75 1 0  0.875 1 0  1 1 0  0 0 0.125  0.125 0 0.125  0.25 0 0.125  0.375 0 0.125  0.5 0 0.125  0.625 0 0.125  0.75 0 0.125  0.875 0 0.125  1 0 0.125  0 0.125 0.125  0.125 0.125 0.125  0.25 0.125 0.125  0.375 0.125 0.125  0.5 0.125 0.125  0.625 0.125 0.125  0.75 0.125 0.125  0.875 0.125 0.125  1 0.125 0.125  0 0.25 0.125  0.125 0.25 0.125  0.25 0.25 0.125  0.375 0.25 0.125  0.5 0.25 0.125  0.625 0.25 0.125  0.75 0.25 0.125  0.875 0.25 0.125  1 0.25 0.125  0 0.375 0.125  0.125 0.375 0.125  0.25 0.375 0.125  0.375 0.375 0.125  0.5 0.375 0.125  0.625 0.375 0.125  0.75 0.375 0.125  0.875 0.375 0.125  1 0.375 0.125  0 0.5 0.125  0.125 0.5 0.125  0.25 0.5 0.125  0.375 0.5 0.125  0.5 0.5 0.125  0.625 0.5 0.125  0.75 0.5 0.125  0.875 0.5 0.125  1 0.5 0.125  0 0.625 0.125  0.125 0.625 0.125  0.25 0.625 0.125  0.375 0.625 0.125  0.5 0.625 0.125  0.625 0.625 0.125  0.75 0.625 0.125  0.875 0.625 0.125  1 0.625 0.125  0 0.75 0.125  0.125 0.75 0.125  0.25 0.75 0.125  0.375 0.75 0.125  0.5 0.75 0.125  0.625 0.75 0.125  0.75 0.75 0.125  0.875 0.75 0.125  1 0.75 0.125  0 0.875 0.125  0.125 0.875 0.125  0.25 0.875 0.125  0.375 0.875 0.125  0.5 0.875 0.125  0.625 0.875 0.125  0.75 0.875 0.125  0.875 0.875 0.125  1 0.875 0.125  0 1 0.125  0.125 1 0.125  0.25 1 0.125  0.375 1 0.125  0.5 1 0.125  0.625 1 0.125  0.75 1 0.125  0.875 1 0.125  1 1 0.125  0 0 0.25  0.125 0 0.25  0.25 0 0.25  0.375 0 0.25  0.5 0 0.25  0.625 0 0.25  0.75 0 0.25  0.875 0 0.25  1 0 0.25  0 0.125 0.25  0.125 0.125 0.25  0.25 0.125 0.25  0.375 0.125 0.25  0.5 0.125 0.25  0.625 0.125 0.25  0.75 0.125 0.25  0.875 0.125 0.25  1 0.125 0.25  0 0.25 0.25  0.125 0.25 0.25  0.25 0.25 0.25  0.375 0.25 0.25  0.5 0.25 0.25  0.625 0.25 0.25  0.75 0.25 0.25  0.875 0.25 0.25  1 0.25 0.25  0 0.375 0.25  0.125 0.375 0.25  0.25 0.375 0.25  0.375 0.375 0.25  0.5 0.375 0.25  0.625 0.375 0.25  0.75 0.375 0.25  0.875 0.375 0.25  1 0.375 0.25  0 0.5 0.25  0.125 0.5 0.25  0.25 0.5 0.25  0.375 0.5 0.25  0.5 0.5 0.25  0.625 0.5 0.25  0.75 0.5 0.25  0.875 0.5 0.25  1 0.5 0.25  0 0.625 0.25  0.125 0.625 0.25  0.25 0.625 0.25  0.375 0.625 0.25  0.5 0.625 0.25  0.625 0.625 0.25  0.75 0.625 0.25  0.875 0.625 0.25  1 0.625 0.25  0 0.75 0.25  0.125 0.75 0.25  0.25 0.75 0.25  0.375 0.75 0.25  0.5 0.75 0.25  0.625 0.75 0.25  0.75 0.75 0.25  0.875 0.75 0.25  1 0.75 0.25  0 0.875 0.25  0.125 0.875 0.25  0.25 0.875 0.25  0.375 0.875 0.25  0.5 0.875 0.25  0.625 0.875 0.25  0.75 0.875 0.25  0.875 0.875 0.25  1 0.875 0.25  0 1 0.25  0.125 1 0.25  0.25 1 0.25  0.375 1 0.25  0.5 1 0.25  0.625 1 0.25  0.75 1 0.25  0.875 1 0.25  1 1 0.25  0 0 0.375  0.125 0 0.375  0.25 0 0.375  0.375 0 0.375  0.5 0 0.375  0.625 0 0.375  0.75 0 0.375  0.875 0 0.375  1 0 0.375  0 0.125 0.375  0.125 0.125 0.375  0.25 0.125 0.375  0.375 0.125 0.375  0.5 0.125 0.375  0.625 0.125 0.375  0.75 0.125 0.375  0.875 0.125 0.375  1 0.125 0.375  0 0.25 0.375  0.125 0.25 0.375  0.25 0.25 0.375  0.375 0.25 0.375  0.5 0.25 0.375  0.625 0.25 0.375  0.75 0.25 0.375  0.875 0.25 0.375  1 0.25 0.375  0 0.375 0.375  0.125 0.375 0.375  0.25 0.375 0.375  0.375 0.375 0.375  0.5 0.375 0.375  0.625 0.375 0.375  0.75 0.375 0.375  0.875 0.375 0.375  1 0.375 0.375  0 0.5 0.375  0.125 0.5 0.375  0.25 0.5 0.375  0.375 0.5 0.375  0.5 0.5 0.375  0.625 0.5 0.375  0.75 0.5 0.375  0.875 0.5 0.375  1 0.5 0.375  0 0.625 0.375  0.125 0.625 0.375  0.25 0.625 0.375  0.375 0.625 0.375  0.5 0.625 0.375  0.625 0.625 0.375  0.75 0.625 0.375  0.875 0.625 0.375  1 0.625 0.375  0 0.75 0.375  0.125 0.75 0.375  0.25 0.75 0.375  0.375 0.75 0.375  0.5 0.75 0.375  0.625 0.75 0.375  0.75 0.75 0.375  0.875 0.75 0.375  1 0.75 0.375  0 0.875 0.375  0.125 0.875 0.375  0.25 0.875 0.375  0.375 0.875 0.375  0.5 0.875 0.375  0.625 0.875 0.375  0.75 0.875 0.375  0.875 0.875 0.375  1 0.875 0.375  0 1 0.375  0.125 1 0.375  0.25 1 0.375  0.375 1 0.375  0.5 1 0.375  0.625 1 0.375  0.75 1 0.375  0.875 1 0.375  1 1 0.375  0 0 0.5  0.125 0 0.5  0.25 0 0.5  0.375 0 0.5  0.5 0 0.5  0.625 0 0.5  0.75 0 0.5  0.875 0 0.5  1 0 0.5  0 0.125 0.5  0.125 0.125 0.5  0.25 0.125 0.5  0.375 0.125 0.5  0.5 0.125 0.5  0.625 0.125 0.5  0.75 0.125 0.5  0.875 0.125 0.5  1 0.125 0.5  0 0.25 0.5  0.125 0.25 0.5  0.25 0.25 0.5  0.375 0.25 0.5  0.5 0.25 0.5  0.625 0.25 0.5  0.75 0.25 0.5  0.875 0.25 0.5  1 0.25 0.5  0 0.375 0.5  0.125 0.375 0.5  0.25 0.375 0.5  0.375 0.375 0.5  0.5 0.375 0.5  0.625 0.375 0.5  0.75 0.375 0.5  0.875 0.375 0.5  1 0.375 0.5  0 0.5 0.5  0.125 0.5 0.5  0.25 0.5 0.5  0.375 0.5 0.5  0.5 0.5 0.5  0.625 0.5 0.5  0.75 0.5 0.5  0.875 0.5 0.5  1 0.5 0.5  0 0.625 0.5  0.125 0.625 0.5  0.25 0.625 0.5  0.375 0.625 0.5  0.5 0.625 0.5  0.625 0.625 0.5  0.75 0.625 0.5  0.875 0.625 0.5  1 0.625 0.5  0 0.75 0.5  0.125 0.75 0.5  0.25 0.75 0.5  0.375 0.75 0.5  0.5 0.75 0.5  0.625 0.75 0.5  0.75 0.75 0.5  0.875 0.75 0.5  1 0.75 0.5  0 0.875 0.5  0.125 0.875 0.5  0.25 0.875 0.5  0.375 0.875 0.5  0.5 0.875 0.5  0.625 0.875 0.5  0.75 0.875 0.5  0.875 0.875 0.5  1 0.875 0.5  0 1 0.5  0.125 1 0.5  0.25 1 0.5  0.375 1 0.5  0.5 1 0.5  0.625 1 0.5  0.75 1 0.5  0.875 1 0.5  1 1 0.5  0 0 0.625  0.125 0 0.625  0.25 0 0.625  0.375 0 0.625  0.5 0 0.625  0.625 0 0.625  0.75 0 0.625  0.875 0 0.625  1 0 0.625  0 0.125 0.625  0.125 0.125 0.625  0.25 0.125 0.625  0.375 0.125 0.625  0.5 0.125 0.625  0.625 0.125 0.625  0.75 0.125 0.625  0.875 0.125 0.625  1 0.125 0.625  0 0.25 0.625  0.125 0.25 0.625  0.25 0.25 0.625  0.375 0.25 0.625  0.5 0.25 0.625  0.625 0.25 0.625  0.75 0.25 0.625  0.875 0.25 0.625  1 0.25 0.625  0 0.375 0.625  0.125 0.375 0.625  0.25 0.375 0.625  0.375 0.375 0.625  0.5 0.375 0.625  0.625 0.375 0.625  0.75 0.375 0.625  0.875 0.375 0.625  1 0.375 0.625  0 0.5 0.625  0.125 0.5 0.625  0.25 0.5 0.625  0.375 0.5 0.625  0.5 0.5 0.625  0.625 0.5 0.625  0.75 0.5 0.625  0.875 0.5 0.625  1 0.5 0.625  0 0.625 0.625  0.125 0.625 0.625  0.25 0.625 0.625  0.375 0.625 0.625  0.5 0.625 0.625  0.625 0.625 0.625  0.75 0.625 0.625  0.875 0.625 0.625  1 0.625 0.625  0 0.75 0.625  0.125 0.75 0.625  0.25 0.75 0.625  0.375 0.75 0.625  0.5 0.75 0.625  0.625 0.75 0.625  0.75 0.75 0.625  0.875 0.75 0.625  1 0.75 0.625  0 0.875 0.625  0.125 0.875 0.625  0.25 0.875 0.625  0.375 0.875 0.625  0.5 0.875 0.625  0.625 0.875 0.625  0.75 0.875 0.625  0.875 0.875 0.625  1 0.875 0.625  0 1 0.625  0.125 1 0.625  0.25 1 0.625  0.375 1 0.625  0.5 1 0.625  0.625 1 0.625  0.75 1 0.625  0.875 1 0.625  1 1 0.625  0 0 0.75  0.125 0 0.75  0.25 0 0.75  0.375 0 0.75  0.5 0 0.75  0.625 0 0.75  0.75 0 0.75  0.875 0 0.75  1 0 0.75  0 0.125 0.75  0.125 0.125 0.75  0.25 0.125 0.75  0.375 0.125 0.75  0.5 0.125 0.75  0.625 0.125 0.75  0.75 0.125 0.75  0.875 0.125 0.75  1 0.125 0.75  0 0.25 0.75  0.125 0.25 0.75  0.25 0.25 0.75  0.375 0.25 0.75  0.5 0.25 0.75  0.625 0.25 0.75  0.75 0.25 0.75  0.875 0.25 0.75  1 0.25 0.75  0 0.375 0.75  0.125 0.375 0.75  0.25 0.375 0.75  0.375 0.375 0.75  0.5 0.375 0.75  0.625 0.375 0.75  0.75 0.375 0.75  0.875 0.375 0.75  1 0.375 0.75  0 0.5 0.75  0.125 0.5 0.75  0.25 0.5 0.75  0.375 0.5 0.75  0.5 0.5 0.75  0.625 0.5 0.75  0.75 0.5 0.75  0.875 0.5 0.75  1 0.5 0.75  0 0.625 0.75  0.125 0.625 0.75  0.25 0.625 0.75  0.375 0.625 0.75  0.5 0.625 0.75  0.625 0.625 0.75  0.75 0.625 0.75  0.875 0.625 0.75  1 0.625 0.75  0 0.75 0.75  0.125 0.75 0.75  0.25 0.75 0.75  0.375 0.75 0.75  0.5 0.75 0.75  0.625 0.75 0.75  0.75 0.75 0.75  0.875 0.75 0.75  1 0.75 0.75  0 0.875 0.75  0.125 0.875 0.75  0.25 0.875 0.75  0.375 0.875 0.75  0.5 0.875 0.75  0.625 0.875 0.75  0.75 0.875 0.75  0.875 0.875 0.75  1 0.875 0.75  0 1 0.75  0.125 1 0.75  0.25 1 0.75  0.375 1 0.75  0.5 1 0.75  0.625 1 0.75  0.75 1 0.75  0.875 1 0.75  1 1 0.75  0 0 0.875  0.125 0 0.875  0.25 0 0.875  0.375 0 0.875  0.5 0 0.875  0.625 0 0.875  0.75 0 0.875  0.875 0 0.875  1 0 0.875  0 0.125 0.875  0.125 0.125 0.875  0.25 0.125 0.875  0.375 0.125 0.875  0.5 0.125 0.875  0.625 0.125 0.875  0.75 0.125 0.875  0.875 0.125 0.875  1 0.125 0.875  0 0.25 0.875  0.125 0.25 0.875  0.25 0.25 0.875  0.375 0.25 0.875  0.5 0.25 0.875  0.625 0.25 0.875  0.75 0.25 0.875  0.875 0.25 0.875  1 0.25 0.875  0 0.375 0.875  0.125 0.375 0.875  0.25 0.375 0.875  0.375 0.375 0.875  0.5 0.375 0.875  0.625 0.375 0.875  0.75 0.375 0.875  0.875 0.375 0.875  1 0.375 0.875  0 0.5 0.875  0.125 0.5 0.875  0.25 0.5 0.875  0.375 0.5 0.875  0.5 0.5 0.875  0.625 0.5 0.875  0.75 0.5 0.875  0.875 0.5 0.875  1 0.5 0.875  0 0.625 0.875  0.125 0.625 0.875  0.25 0.625 0.875  0.375 0.625 0.875  0.5 0.625 0.875  0.625 0.625 0.875  0.75 0.625 0.875  0.875 0.625 0.875  1 0.625 0.875  0 0.75 0.875  0.125 0.75 0.875  0.25 0.75 0.875  0.375 0.75 0.875  0.5 0.75 0.875  0.625 0.75 0.875  0.75 0.75 0.875  0.875 0.75 0.875  1 0.75 0.875  0 0.875 0.875  0.125 0.875 0.875  0.25 0.875 0.875  0.375 0.875 0.875  0.5 0.875 0.875  0.625 0.875 0.875  0.75 0.875 0.875  0.
[...]
<PointData  Vectors="f_553"> 
<DataArray  type="Float64"  Name="f_553"  NumberOfComponents="3" format="ascii">0.0000000000000000e+00 0.0000000000000000e+00 0.0000000000000000e+00  0.0000000000000000e+00 0.0000000000000000e+00 0.0000000000000000e+00  0.0000000000000000e+00 0.0000000000000000e+00 0.0000000000000000e+00  0.0000000000000000e+00 0.0000000000000000e+00 0.0000000000000000e+00  0.0000000000000000e+00 0.0000000000000000e+00 0.0000000000000000e+00  0.0000000000000000e+00 0.0000000000000000e+00 0.0000000000000000e+00  0.0000000000000000e+00 0.0000000000000000e+00 0.0000000000000000e+00  0.0000000000000000e+00 0.0000000000000000e+00 0.0000000000000000e+00  0.0000000000000000e+00 0.0000000000000000e+00 0.0000000000000000e+00  0.0000000000000000e+00 0.0000000000000000e+00 0.0000000000000000e+00  0.0000000000000000e+00 0.0000000000000000e+00 0.0000000000000000e+00  0.0000000000000000e+00 0.0000000000000000e+00 0.0000000000000000e+00  0.0000000000000000e+00 0.0000000000000000e+00 0.0000000000000000e+00  0.0000000000000000e+00 0.0000000000000000e+00 0.0000000000000000e+00  0.0000000000000000e+00 0.0000000000000000e+00 0.0000000000000000e+00  0.0000000000000000e+00 0.0000000000000000e+00 0.0000000000000000e+00  0.0000000000000000e+00 0.0000000000000000e+00 0.0000000000000000e+00  0.0000000000000000e+00 0.0000000000000000e+00 0.0000000000000000e+00  0.0000000000000000e+00 0.0000000000000000e+00 0.0000000000000000e+00  0.0000000000000000e+00 0.0000000000000000e+00 0.0000000000000000e+00  0.0000000000000000e+00 0.0000000000000000e+00 0.0000000000000000e+00  0.0000000000000000e+00 0.0000000000000000e+00 0.0000000000000000e+00  0.0000000000000000e+00 0.0000000000000000e+00 0.0000000000000000e+00  0.0000000000000000e+00 0.0000000000000000e+00 0.0000000000000000e+00  0.0000000000000000e+00 0.0000000000000000e+00 0.0000000000000000e+00  0.0000000000000000e+00 0.0000000000000000e+00 0.0000000000000000e+00  0.0000000000000000e+00 0.0000000000000000e+00 0.0000000000000000e+00  0.0000000000000000e+00 0.0000000000000000e+00 0.0000000000000000e+00  0.0000000000000000e+00 0.0000000000000000e+00 0.0000000000000000e+00  0.0000000000000000e+00 0.0000000000000000e+00 0.0000000000000000e+00  0.0000000000000000e+00 0.0000000000000000e+00 0.0000000000000000e+00  0.0000000000000000e+00 0.0000000000000000e+00 0.0000000000000000e+00  0.0000000000000000e+00 0.0000000000000000e+00 0.0000000000000000e+00  0.0000000000000000e+00 0.0000000000000000e+00 0.0000000000000000e+00  0.0000000000000000e+00 0.0000000000000000e+00 0.0000000000000000e+00  0.0000000000000000e+00 0.0000000000000000e+00 0.0000000000000000e+00  0.0000000000000000e+00 0.0000000000000000e+00 0.0000000000000000e+00  0.0000000000000000e+00 0.0000000000000000e+00 0.0000000000000000e+00  0.0000000000000000e+00 0.0000000000000000e+00 0.0000000000000000e+00  0.0000000000000000e+00 0.0000000000000000e+00 0.0000000000000000e+00  0.0000000000000000e+00 0.0000000000000000e+00 0.0000000000000000e+00  0.0000000000000000e+00 0.0000000000000000e+00 0.0000000000000000e+00  0.0000000000000000e+00 0.0000000000000000e+00 0.0000000000000000e+00  0.0000000000000000e+00 0.0000000000000000e+00 0.0000000000000000e+00  0.0000000000000000e+00 0.0000000000000000e+00 0.0000000000000000e+00  0.0000000000000000e+00 0.0000000000000000e+00 0.0000000000000000e+00  0.0000000000000000e+00 0.0000000000000000e+00 0.0000000000000000e+00  0.0000000000000000e+00 0.0000000000000000e+00 0.0000000000000000e+00  0.0000000000000000e+00 0.0000000000000000e+00 0.0000000000000000e+00  0.0000000000000000e+00 0.0000000000000000e+00 0.0000000000000000e+00  0.0000000000000000e+00 0.0000000000000000e+00 0.0000000000000000e+00  0.0000000000000000e+00 0.0000000000000000e+00 0.0000000000000000e+00  0.0000000000000000e+00 0.0000000000000000e+00 0.0000000000000000e+00  0.0000000000000000e+00 0.0000000000000000e+00 0.0000000000000000e+00  0.0000000000000000e+00 0.0000000000000000e+00 0.0000000000000000e+00  0.0000000000000000e+00 0.0000000000000000e+00 0.0000000000000000e+00  0.0000000000000000e+00 0.0000000000000000e+00 0.0000000000000000e+00  0.0000000000000000e+00 0.0000000000000000e+00 0.0000000000000000e+00  0.0000000000000000e+00 0.0000000000000000e+00 0.0000000000000000e+00  0.0000000000000000e+00 0.0000000000000000e+00 0.0000000000000000e+00  0.0000000000000000e+00 0.0000000000000000e+00 0.0000000000000000e+00  0.0000000000000000e+00 0.0000000000000000e+00 0.0000000000000000e+00  0.0000000000000000e+00 0.0000000000000000e+00 0.0000000000000000e+00  0.0000000000000000e+00 0.0000000000000000e+00 0.0000000000000000e+00  0.0000000000000000e+00 0.0000000000000000e+00 0.0000000000000000e+00  0.0000000000000000e+00 0.0000000000000000e+00 0.0000000000000000e+00  0.0000000000000000e+00 0.0000000000000000e+00 0.0000000000000000e+00  0.0000000000000000e+00 0.0000000000000000e+00 0.0000000000000000e+00  0.0000000000000000e+00 0.0000000000000000e+00 0.0000000000000000e+00  0.0000000000000000e+00 0.0000000000000000e+00 0.0000000000000000e+00  0.0000000000000000e+00 0.0000000000000000e+00 0.0000000000000000e+00  0.0000000000000000e+00 0.0000000000000000e+00 0.0000000000000000e+00  0.0000000000000000e+00 0.0000000000000000e+00 0.0000000000000000e+00  0.0000000000000000e+00 0.0000000000000000e+00 0.0000000000000000e+00  0.0000000000000000e+00 0.0000000000000000e+00 0.0000000000000000e+00  0.0000000000000000e+00 0.0000000000000000e+00 0.0000000000000000e+00  0.0000000000000000e+00 0.0000000000000000e+00 0.0000000000000000e+00  0.0000000000000000e+00 0.0000000000000000e+00 0.0000000000000000e+00  0.0000000000000000e+00 0.0000000000000000e+00 0.0000000000000000e+00  0.0000000000000000e+00 0.0000000000000000e+00 0.0000000000000000e+00  0.0000000000000000e+00 0.0000000000000000e+00 0.0000000000000000e+00  0.0000000000000000e+00 0.0000000000000000e+00 0.0000000000000000e+00  0.0000000000000000e+00 0.0000000000000000e+00 0.0000000000000000e+00  0.0000000000000000e+00 0.0000000000000000e+00 0.0000000000000000e+00  0.0000000000000000e+00 0.0000000000000000e+00 0.0000000000000000e+00  0.0000000000000000e+00 0.0000000000000000e+00 0.0000000000000000e+00  0.0000000000000000e+00 0.0000000000000000e+00 0.0000000000000000e+00  0.0000000000000000e+00 0.0000000000000000e+00 0.0000000000000000e+00  0.0000000000000000e+00 0.0000000000000000e+00 0.0000000000000000e+00  0.0000000000000000e+00 0.0000000000000000e+00 0.0000000000000000e+00  0.0000000000000000e+00 0.0000000000000000e+00 0.0000000000000000e+00  -5.6939056665206694e-03 -6.0666375262331774e-04 5.7758961937413875e-03  -1.8400838523757870e-02 -3.7488508793442854e-05 7.6924316653303928e-03  -3.0489850261145656e-02 1.5715114691926884e-04 5.0555139090073652e-03  -3.5363227733328756e-02 -3.3312834756844420e-05 3.6940229271867986e-05  -3.0616315462541070e-02 -2.0937476681350434e-04 -4.9830559961284108e-03  -1.8555592754224512e-02 -6.1797804015512067e-06 -7.6499114117458663e-03  -5.5630192527068266e-03 6.1839758457344946e-04 -5.7589774829420251e-03  0.0000000000000000e+00 0.0000000000000000e+00 0.0000000000000000e+00  0.0000000000000000e+00 0.0000000000000000e+00 0.0000000000000000e+00  -8.9053628975569957e-03 -1.1230937456435412e-03 8.4609392767818672e-03  -2.8218121078353340e-02 -3.4990978313041764e-04 1.1770088817240044e-02  -4.6327826750352186e-02 7.6983327186382010e-05 7.8423282855531202e-03  -5.3529844969309223e-02 -5.5476864895536723e-05 4.7556138730581891e-06  -4.6425595069711306e-02 -1.9233860433625225e-04 -7.8314688475446814e-03  -2.8367757005869864e-02 2.2588733232307273e-04 -1.1756132610507949e-02  -8.6822661331559334e-03 1.0051581531128064e-03 -8.4165926676182841e-03  0.0000000000000000e+00 0.0000000000000000e+00 0.0000000000000000e+00  0.0000000000000000e+00 0.0000000000000000e+00 0.0000000000000000e+00  -1.0227954510732360e-02 -8.4830885973476318e-04 9.2866656249880834e-03  -3.2744063024940422e-02 -4.3965537769955881e-04 1.3325181831156189e-02  -5.3913889982454243e-02 -9.9521440783485258e-05 8.9578796263315406e-03  -6.2299434018556074e-02 -6.2546660054311034e-05 -4.5964688411663377e-05  -5.3984560383044479e-02 -1.6927573181265518e-05 -9.0378768136876609e-03  -3.2871659036148429e-02 3.4765195984057300e-04 -1.3354123243979844e-02  -9.9640017622098544e-03 7.9111367745269938e-04 -9.2451230511857944e-03  0.0000000000000000e+00 0.0000000000000000e+00 0.0000000000000000e+00  0.0000000000000000e+00 0.0000000000000000e+00 0.0000000000000000e+00  -1.0578280759361184e-02 -1.3849780354291242e-05 9.4640137169064321e-03  -3.4021257789900429e-02 3.6772207432576895e-06 1.3722858920158669e-02  -5.6135990756476184e-02 4.7635077332305312e-06 9.2540649276709862e-03  -6.4885175394193612e-02 -4.2669605996055455e-07 -6.1266218511551700e-05  -5.6187963499381759e-02 -5.5852104638465379e-07 -9.3628117834973334e-03  -3.4138389556005823e-02 4.2274973506371794e-06 -1.3763843534345087e-02  -1.0302993656472902e-02 1.1864719754959280e-05 -9.4294967414721848e-03  0.0000000000000000e+00 0.0000000000000000e+00 0.0000000000000000e+00  0.0000000000000000e+00 0.0000000000000000e+00 0.0000000000000000e+00  -1.0205234727932437e-02 8.2317471143422910e-04 9.3053638774024325e-03  -3.2726319616591101e-02 4.3629111653786611e-04 1.3355039138866180e-02  -5.3936174737166956e-02 9.7989474485591402e-05 8.9732614628689894e-03  -6.2314125910585418e-02 5.8692549223273977e-05 -4.0790191283719876e-05  -5.3990615854308137e-02 2.1715133964818535e-05 -9.0504038851122910e-03  -3.2854291001083294e-02 -3.2282999826238005e-04 -1.3371418114794337e-02  -9.9574674665387532e-03 -7.3874700537455008e-04 -9.2624507742037482e-03  0.0000000000000000e+00 0.0000000000000000e+00 0.0000000000000000e+00  0.0000000000000000e+00 0.0000000000000000e+00 0.0000000000000000e+00  -8.8435084487338694e-03 1.0815249389674779e-03 8.4856446464868559e-03  -2.8188171553128992e-02 3.7206895066755133e-04 1.1805988951613005e-02  -4.6374511333059421e-02 -4.0969501543154664e-05 7.8504663001961097e-03  -5.3559909218702025e-02 7.6234783733254079e-05 7.2765819307623578e-06  -4.6444063979742170e-02 1.8858821798251824e-04 -7.8491622062122398e-03  -2.8320488004037150e-02 -2.4900943120475058e-04 -1.1776213085211101e-02  -8.6891000837331454e-03 -1.0452375347904219e-03 -8.4434946698605257e-03  0.0000000000000000e+00 0.0000000000000000e+00 0.0000000000000000e+00  0.0000000000000000e+00 0.0000000000000000e+00 0.0000000000000000e+00  -5.6501173468640970e-03 5.4796682811378099e-04 5.8321257820298095e-03  -1.8378139550551394e-02 -2.1591139045579684e-05 7.7578601854875213e-03  -3.0558632069941537e-02 -2.0851041697553553e-04 5.0812295975568222e-03  -3.5393341651096755e-02 2.4544674276367814e-05 5.1211215491139759e-05  -3.0614410331227169e-02 2.7229670149651034e-04 -4.9985657973519847e-03  -1.8471914419656506e-02 1.3474830879088185e-04 -7.6799510931028128e-03  -5.5745294490342785e-03 -4.7966362779401563e-04 -5.8272142508149017e-03  0.0000000000000000e+00 0.0000000000000000e+00 0.0000000000000000e+00  0.0000000000000000e+00 0.0000000000000000e+00 0.0000000000000000e+00  0.0000000000000000e+00 0.0000000000000000e+00 0.0000000000000000e+00  0.0000000000000000e+00 0.0000000000000000e+00 0.0000000000000000e+00  0.0000000000000000e+00 0.0000000000000000e+00 0.0000000000000000e+00  0.0000000000000000e+00 0.0000000000000000e+00 0.0000000000000000e+00  0.0000000000000000e+00 0.0000000000000000e+00 0.0000000000000000e+00  0.0000000000000000e+00 0.0000000000000000e+00 0.0000000000000000e+00  0.0000000000000000e+00 0.0000000000000000e+00 0.0000000000000000e+00  0.0000000000000000e+00 0.0000000000000000e+00 0.0000000000000000e+00  0.0000000000000000e+00 0.0000000000000000e+00 0.0000000000000000e+00  0.0000000000000000e+00 0.0000000000000000e+00 0.0000000000000000e+00  0.0000000000000000e+00 0.0000000000000000e+00 0.0000000000000000e+00  0.0000000000000000e+00 0.0000000000000000e+00 0.0000000000000000e+00  0.0000000000000000e+00 0.0000000000000000e+00 0.0000000000000000e+00  0.0000000000000000e+00 0.0000000000000000e+00 0.0000000000000000e+00  0.0000000000000000e+00 0.0000000000000000e+00 0.0000000000000000e+00  0.0000000000000000e+00 0.0000000000000000e+00 0.0000000000000000e+00  0.0000000000000000e+00 0.0000000000000000e+00 0.0000000000000000e+00  0.0000000000000000e+00 0.0000000000000000e+00 0.0000000000000000e+00  -1.1037048937719460e-02 -1.7537307906151268e-03 2.1849825509510770e-02  -3.2824041071373065e-02 -9.1799579692102180e-04 2.6629667441087849e-02  -5.1924447202553091e-02 -3.1385931734762197e-04 1.7125121674718996e-02  -5.9371527388888894e-02 -3.6866114054080588e-05 2.1512215619734883e-04  -5.2145734557669833e-02 2.4663241880825060e-04 -1.6850854777069969e-02  -3.3044110545983746e-02 8.6405803739607887e-04 -2.6623308700787190e-02  -1.0786025362415219e-02 1.7904675421028446e-03 -2.1916141825165610e-02  0.0000000000000000e+00 0.0000000000000000e+00 0.0000000000000000e+00  0.0000000000000000e+00 0.0000000000000000e+00 0.0000000000000000e+00  -1.7546759526465571e-02 -2.8477764442524935e-03 3.1412361330786870e-02  -5.1436790002310585e-02 -1.7744247742905095e-03 3.9910204548710040e-02  -8.0757418280204205e-02 -6.7861430790805031e-04 2.6069905100631896e-02  -9.2094421091141077e-02 -6.1548667310891794e-05 1.7847829475392573e-04  -8.1013611175316677e-02 5.4223603018322818e-04 -2.5907246771759020e-02  -5.1707799939917171e-02 1.6162226787778543e-03 -4.0078689939457089e-02  -1.7264227863487289e-02 2.6644789114465988e-03 -3.1611932977358932e-02  0.0000000000000000e+00 0.0000000000000000e+00 0.0000000000000000e+00  0.0000000000000000e+00 0.0000000000000000e+00 0.0000000000000000e+00  -2.0349004242955271e-02 -1.9072603259327537e-03 3.4927102176688304e-02  -6.0106110277678121e-02 -1.3631125680250624e-03 4.5361675526296441e-02  -9.4520932294209686e-02 -5.8385342906035740e-04 2.9898803429759965e-02  -1.0779272464481106e-01 -5.4596847810815398e-05 8.7936378922049221e-05  -9.4756685774259053e-02 4.7259037156253465e-04 -2.9921307209301095e-02  -6.0340920757124945e-02 1.2564145792713613e-03 -4.5699130186257715e-02  -2.0068639533188222e-02 1.8183044469405778e-03 -3.5236658366980665e-02  0.0000000000000000e+00 0.0000000000000000e+00 0.0000000000000000e+00  0.0000000000000000e+00 0.0000000000000000e+00 0.0000000000000000e+00  -2.1107693882785227e-02 -1.1605396692857841e-05 3.5786909849675738e-02  -6.2554286855971447e-02 1.1020119888918413e-05 4.6790931116252009e-02  -9.8510343021196073e-02 1.4063702765035699e-05 3.0931740348457772e-02  -1.1236870112269726e-01 4.8004453237760821e-06 5.3021789468099075e-05  -9.8723097533127385e-02 -1.2161867919001029e-06 -3.1023598343615174e-02  -6.2770554991908131e-02 1.8297891412124017e-06 -4.7188372405959800e-02  -2.0827115956927003e-02 1.2593746989921249e-06 -3.6141489338149049e-02  0.0000000000000000e+00 0.0000000000000000e+00 0.0000000000000000e+00  0.0000000000000000e+00 0.0000000000000000e+00 0.0000000000000000e+00  -2.0312753337032075e-02 1.8972116886183772e-03 3.4966615624324578e-02  -6.0094750335634405e-02 1.3821839332329130e-03 4.5422028268735648e-02  -9.4547926993758150e-02 6.0548753221938243e-04 2.9948941710007924e-02  -1.0781576501680853e-01 6.3241467318327684e-05 1.0100159329859305e-04  -9.4761878654047782e-02 -4.6942801601388616e-04 -2.9936982656001847e-02  -6.0326808864430745e-02 -1.2346507505512595e-03 -4.5732580759378756e-02  -2.0080901874184900e-02 -1.7812376688332520e-03 -3.5286631972727363e-02  0.0000000000000000e+00 0.0000000000000000e+00 0.0000000000000000e+00  0.0000000000000000e+00 0.0000000000000000e+00 0.0000000000000000e+00  -1.7434639533209742e-02 2.7554799463267699e-03 3.1500095125889319e-02  -5.1414909141044490e-02 1.7805770591961200e-03 4.0041674236143604e-02  -8.0802367703799352e-02 7.1476593008732456e-04 2.6178738444580407e-02  -9.2137759393920340e-02 8.9536708245447293e-05 2.0934762103219594e-04  -8.1038896838111982e-02 -5.3614238905566147e-04 -2.5937135892186769e-02  -5.1663229482176644e-02 -1.6158599173916302e-03 -4.0149676249358085e-02  -1.7352220612667713e-02 -2.7222561273786837e-03 -3.1728523931681137e-02  0.0000000000000000e+00 0.0000000000000000e+00 0.0000000000000000e+00  0.0000000000000000e+00 0.0000000000000000e+00 0.0000000000000000e+00  -1.0891923515805681e-02 1.7175145837269533e-03 2.1993720094860197e-02  -3.2772524417025529e-02 9.2672055920400376e-04 2.6826783504466947e-02  -5.1978906716119544e-02 3.3485111877416281e-04 1.7293264469042568e-02  -5.9429047292898225e-02 6.4944331689493017e-05 2.7573991341270582e-04  -5.2191277129856474e-02 -1.9126841790422427e-04 -1.6877780952706683e-02  -3.2999107146855042e-02 -7.4695833056355498e-04 -2.6725953264458705e-02  -1.0939912430815471e-02 -1.6308099114395074e-03 -2.2155599132906649e-02  0.0000000000000000e+00 0.0000000000000000e+00 0.0000000000000000e+00  0.0000000000000000e+00 0.0000000000000000e+00 0.0000000000000000e+00  0.0000000000000000e+00 0.0000000000000000e+00 0.0000000000000000e+00  0.0000000000000000e+00 0.0000000000000000e+00 0.0000000000000000e+00  0.0000000000000000e+00 0.0000000000000000e+00 0.0000000000000000e+00  0.0000000000000000e+00 0.0000000000000000e+00 0.0000000000000000e+00  0.0000000000000000e+00 0.0000000000000000e+00 0.0000000000000000e+00  0.0000000000000000e+00 0.0000000000000000e+00 0.0000000000000000e+00  0.0000000000000000e+00 0.0000000000000000e+00 0.0000000000000000e+00  0.0000000000000000e+00 0.0000000000000000e+00 0.0000000000000000e+00  0.0000000000000000e+00 0.0000000000000000e+00 0.0000000000000000e+00  0.0000000000000000e+00 0.0000000000000000e+00 0.0000000000000000e+00  0.0000000000000000e+00 0.0000000000000000e+00 0.0000000000000000e+00  0.0000000000000000e+00 0.0000000000000000e+00 0.0000000000000000e+00  0.0000000000000000e+00 0.0000000000000000e+00 0.0000000000000000e+00  0.0000000000000000e+00 0.0000000000000000e+00 0.0000000000000000e+00  0.0000000000000000e+00 0.0000000000000000e+00 0.0000000000000000e+00  0.0000000000000000e+00 0.0000000000000000e+00 0.0000000000000000e+00  0.0000000000000000e+00 0.0000000000000000e+00 0.0000000000000000e+00  0.0000000000000000e+00 0.0000000000000000e+00 0.0000000000000000e+00  -1.7228817205755580e-02 -2.7328190827807966e-03 4.8431592250048797e-02  -4.8993667118179797e-02 -1.5509488583100306e-03 5.5265001579854284e-02  -7.4605577357577210e-02 -5.7762379425477944e-04 3.4381579432603289e-02  -8.4228714122808176e-02 6.7940466540161281e-06 5.1975974512543006e-04  -7.5165082560583310e-02 6.0906334230722051e-04 -3.3633698039226737e-02  -4.9659885169087765e-02 1.5694876613050654e-03 -5.5070542286953558e-02  -1.7070902464949377e-02 2.8581819936725887e-03 -4.8618935965017727e-02  0.0000000000000000e+00 0.0000000000000000e+00 0.0000000000000000e+00  0.0000000000000000e+00 0.0000000000000000e+00 0.0000000000000000e+00  -2.6793846914813933e-02 -4.4163774324300900e-03 6.8586850371589833e-02  -7.5541864735316586e-02 -2.9795205445957737e-03 8.1524634420200789e-02  -1.1460504561032882e-01 -1.2676224917628151e-03 5.1498410721195903e-02  -1.2917728339180715e-01 -8.7804388524437061e-06 4.3717989229392700e-04  -1.1526065971063480e-01 1.2207016977239934e-03 -5.0945131767514175e-02  -7.6334560085860009e-02 2.8653329965505755e-03 -8.1586282790397424e-02  -2.6660625916161050e-02 4.2002716493827839e-03 -6.8862200870601575e-02  0.0000000000000000e+00 0.0000000000000000e+00 0.0000000000000000e+00  0.0000000000000000e+00 0.0000000000000000e+00 0.0000000000000000e+00  -3.0656100263274300e-02 -2.8754399212812050e-03 7.6268292116846048e-02  -8.7293501913060137e-02 -2.2032814161260092e-03 9.2284601694981691e-02  -1.3283653484398164e-01 -1.0084056886499127e-03 5.8774072025622522e-02  -1.4979663845465049e-01 -2.1521455713958227e-06 2.7935020298930601e-04  -1.3346676074829053e-01 9.8522363016363473e-04 -5.8526290273249869e-02  -8.8036618479290563e-02 2.1518736503799919e-03 -9.2599701135654855e-02  -3.0571690370601673e-02 2.8126964790229987e-03 -7.6677100832211201e-02  0.0000000000000000e+00 0.0000000000000000e+00 0.0000000000000000e+00  0.0000000000000000e+00 0.0000000000000000e+00 0.0000000000000000e+00  -3.1666849471340318e-02 1.3158384430295013e-05 7.823916750