<?xml version="1.0"?>
<VTKFile type="UnstructuredGrid"  version="0.1"  >
<UnstructuredGrid>
<Piece  NumberOfPoints="729" NumberOfCells="3072">
<Points>
<DataArray  type="Float64"  NumberOfComponents="3"  format="ascii">0 0 0  0.125 0 0  0.25 0 0  0.375 0 0  0.5 0 0  0.625 0 0  0.75 0 0  0.875 0 0  1 0 0  0 0.125 0  0.125 0.125 0  0.25 0.125 0  0.375 0.125 0  0.5 0.125 0  0.625 0.125 0  0.75 0.125 0  0.875 0.125 0  1 0.125 0  0 0.25 0  0.125 0.25 0  0.25 0.25 0  0.375 0.25 0  0.5 0.25 0  0.625 0.25 0  0.75 0.25 0  0.875 0.25 0  1 0.25 0  0 0.375 0  0.125 0.375 0  0.25 0.375 0  0.375 0.375 0  0.5 0.375 0  0.625 0.375 0  0.75 0.375 0  0.875 0.375 0  1 0.375 0  0 0.5 0  0.125 0.5 0  0.25 0.5 0  0.375 0.5 0  0.5 0.5 0  0.625 0.5 0  0.75 0.5 0  0.875 0.5 0  1 0.5 0  0 0.625 0  0.125 0.625 0  0.25 0.625 0  0.375 0.625 0  0.5 0.625 0  0.625 0.625 0  0.75 0.625 0  0.875 0.625 0  1 0.625 0  0 0.75 0  0.125 0.75 0  0.25 0.75 0  0.375 0.75 0  0.5 0.75 0  0.625 0.75 0  0.75 0.75 0  0.875 0.75 0  1 0.75 0  0 0.875 0  0.125 0.875 0  0.25 0.875 0  0.375 0.875 0  0.5 0.875 0  0.625 0.875 0  0.75 0.875 0  0.875 0.875 0  1 0.875 0  0 1 0  0.125 1 0  0.25 1 0  0.375 1 0  0.5 1 0  0.625 1 0  0.75 1 0  0.875 1 0  1 1 0  0 0 0.125  0.125 0 0.125  0.25 0 0.125  0.375 0 0.125  0.5 0 0.125  0.625 0 0.125  0.75 0 0.125  0.875 0 0.125  1 0 0.125  0 0.125 0.125  0.125 0.125 0.125  0.25 0.125 0.125  0.375 0.125 0.125  0.5 0.125 0.125  0.625 0.125 0.125  0.75 0.125 0.125  0.875 0.125 0.125  1 0.125 0.125  0 0.25 0.125  0.125 0.25 0.125  0.25 0.25 0.125  0.375 0.25 0.125  0.5 0.25 0.125  0.625 0.25 0.125  0.75 0.25 0.125  0.875 0.25 0.125  1 0.25 0.125  0 0.375 0.125  0.125 0.375 0.125  0.25 0.375 0.125  0.375 0.375 0.125  0.5 0.375 0.125  0.625 0.375 0.125  0.75 0.375 0.125  0.875 0.375 0.125  1 0.375 0.125  0 0.5 0.125  0.125 0.5 0.125  0.25 0.5 0.125  0.375 0.5 0.125  0.5 0.5 0.125  0.625 0.5 0.125  0.75 0.5 0.125  0.875 0.5 0.125  1 0.5 0.125  0 0.625 0.125  0.125 0.625 0.125  0.25 0.625 0.125  0.375 0.625 0.125  0.5 0.625 0.125  0.625 0.625 0.125  0.75 0.625 0.125  0.875 0.625 0.125  1 0.625 0.125  0 0.75 0.125  0.125 0.75 0.125  0.25 0.75 0.125  0.375 0.75 0.125  0.5 0.75 0.125  0.625 0.75 0.125  0.75 0.75 0.125  0.875 0.75 0.125  1 0.75 0.125  0 0.875 0.125  0.125 0.875 0.125  0.25 0.875 0.125  0.375 0.875 0.125  0.5 0.875 0.125  0.625 0.875 0.125  0.75 0.875 0.125  0.875 0.875 0.125  1 0.875 0.125  0 1 0.125  0.125 1 0.125  0.25 1 0.125  0.375 1 0.125  0.5 1 0.125  0.625 1 0.125  0.75 1 0.125  0.875 1 0.125  1 1 0.125  0 0 0.25  0.125 0 0.25  0.25 0 0.25  0.375 0 0.25  0.5 0 0.25  0.625 0 0.25  0.75 0 0.25  0.875 0 0.25  1 0 0.25  0 0.125 0.25  0.125 0.125 0.25  0.25 0.125 0.25  0.375 0.125 0.25  0.5 0.125 0.25  0.625 0.125 0.25  0.75 0.125 0.25  0.875 0.125 0.25  1 0.125 0.25  0 0.25 0.25  0.125 0.25 0.25  0.25 0.25 0.25  0.375 0.25 0.25  0.5 0.25 0.25  0.625 0.25 0.25  0.75 0.25 0.25  0.875 0.25 0.25  1 0.25 0.25  0 0.375 0.25  0.125 0.375 0.25  0.25 0.375 0.25  0.375 0.375 0.25  0.5 0.375 0.25  0.625 0.375 0.25  0.75 0.375 0.25  0.875 0.375 0.25  1 0.375 0.25  0 0.5 0.25  0.125 0.5 0.25  0.25 0.5 0.25  0.375 0.5 0.25  0.5 0.5 0.25  0.625 0.5 0.25  0.75 0.5 0.25  0.875 0.5 0.25  1 0.5 0.25  0 0.625 0.25  0.125 0.625 0.25  0.25 0.625 0.25  0.375 0.625 0.25  0.5 0.625 0.25  0.625 0.625 0.25  0.75 0.625 0.25  0.875 0.625 0.25  1 0.625 0.25  0 0.75 0.25  0.125 0.75 0.25  0.25 0.75 0.25  0.375 0.75 0.25  0.5 0.75 0.25  0.625 0.75 0.25  0.75 0.75 0.25  0.875 0.75 0.25  1 0.75 0.25  0 0.875 0.25  0.125 0.875 0.25  0.25 0.875 0.25  0.375 0.875 0.25  0.5 0.875 0.25  0.625 0.875 0.25  0.75 0.875 0.25  0.875 0.875 0.25  1 0.875 0.25  0 1 0.25  0.125 1 0.25  0.25 1 0.25  0.375 1 0.25  0.5 1 0.25  0.625 1 0.25  0.75 1 0.25  0.875 1 0.25  1 1 0.25  0 0 0.375  0.125 0 0.375  0.25 0 0.375  0.375 0 0.375  0.5 0 0.375  0.625 0 0.375  0.75 0 0.375  0.875 0 0.375  1 0 0.375  0 0.125 0.375  0.125 0.125 0.375  0.25 0.125 0.375  0.375 0.125 0.375  0.5 0.125 0.375  0.625 0.125 0.375  0.75 0.125 0.375  0.875 0.125 0.375  1 0.125 0.375  0 0.25 0.375  0.125 0.25 0.375  0.25 0.25 0.375  0.375 0.25 0.375  0.5 0.25 0.375  0.625 0.25 0.375  0.75 0.25 0.375  0.875 0.25 0.375  1 0.25 0.375  0 0.375 0.375  0.125 0.375 0.375  0.25 0.375 0.375  0.375 0.375 0.375  0.5 0.375 0.375  0.625 0.375 0.375  0.75 0.375 0.375  0.875 0.375 0.375  1 0.375 0.375  0 0.5 0.375  0.125 0.5 0.375  0.25 0.5 0.375  0.375 0.5 0.375  0.5 0.5 0.375  0.625 0.5 0.375  0.75 0.5 0.375  0.875 0.5 0.375  1 0.5 0.375  0 0.625 0.375  0.125 0.625 0.375  0.25 0.625 0.375  0.375 0.625 0.375  0.5 0.625 0.375  0.625 0.625 0.375  0.75 0.625 0.375  0.875 0.625 0.375  1 0.625 0.375  0 0.75 0.375  0.125 0.75 0.375  0.25 0.75 0.375  0.375 0.75 0.375  0.5 0.75 0.375  0.625 0.75 0.375  0.75 0.75 0.375  0.875 0.75 0.375  1 0.75 0.375  0 0.875 0.375  0.125 0.875 0.375  0.25 0.875 0.375  0.375 0.875 0.375  0.5 0.875 0.375  0.625 0.875 0.375  0.75 0.875 0.375  0.875 0.875 0.375  1 0.875 0.375  0 1 0.375  0.125 1 0.375  0.25 1 0.375  0.375 1 0.375  0.5 1 0.375  0.625 1 0.375  0.75 1 0.375  0.875 1 0.375  1 1 0.375  0 0 0.5  0.125 0 0.5  0.25 0 0.5  0.375 0 0.5  0.5 0 0.5  0.625 0 0.5  0.75 0 0.5  0.875 0 0.5  1 0 0.5  0 0.125 0.5  0.125 0.125 0.5  0.25 0.125 0.5  0.375 0.125 0.5  0.5 0.125 0.5  0.625 0.125 0.5  0.75 0.125 0.5  0.875 0.125 0.5  1 0.125 0.5  0 0.25 0.5  0.125 0.25 0.5  0.25 0.25 0.5  0.375 0.25 0.5  0.5 0.25 0.5  0.625 0.25 0.5  0.75 0.25 0.5  0.875 0.25 0.5  1 0.25 0.5  0 0.375 0.5  0.125 0.375 0.5  0.25 0.375 0.5  0.375 0.375 0.5  0.5 0.375 0.5  0.625 0.375 0.5  0.75 0.375 0.5  0.875 0.375 0.5  1 0.375 0.5  0 0.5 0.5  0.125 0.5 0.5  0.25 0.5 0.5  0.375 0.5 0.5  0.5 0.5 0.5  0.625 0.5 0.5  0.75 0.5 0.5  0.875 0.5 0.5  1 0.5 0.5  0 0.625 0.5  0.125 0.625 0.5  0.25 0.625 0.5  0.375 0.625 0.5  0.5 0.625 0.5  0.625 0.625 0.5  0.75 0.625 0.5  0.875 0.625 0.5  1 0.625 0.5  0 0.75 0.5  0.125 0.75 0.5  0.25 0.75 0.5  0.375 0.75 0.5  0.5 0.75 0.5  0.625 0.75 0.5  0.75 0.75 0.5  0.875 0.75 0.5  1 0.75 0.5  0 0.875 0.5  0.125 0.875 0.5  0.25 0.875 0.5  0.375 0.875 0.5  0.5 0.875 0.5  0.625 0.875 0.5  0.75 0.875 0.5  0.875 0.875 0.5  1 0.875 0.5  0 1 0.5  0.125 1 0.5  0.25 1 0.5  0.375 1 0.5  0.5 1 0.5  0.625 1 0.5  0.75 1 0.5  0.875 1 0.5  1 1 0.5  0 0 0.625  0.125 0 0.625  0.25 0 0.625  0.375 0 0.625  0.5 0 0.625  0.625 0 0.625  0.75 0 0.625  0.875 0 0.625  1 0 0.625  0 0.125 0.625  0.125 0.125 0.625  0.25 0.125 0.625  0.375 0.125 0.625  0.5 0.125 0.625  0.625 0.125 0.625  0.75 0.125 0.625  0.875 0.125 0.625  1 0.125 0.625  0 0.25 0.625  0.125 0.25 0.625  0.25 0.25 0.625  0.375 0.25 0.625  0.5 0.25 0.625  0.625 0.25 0.625  0.75 0.25 0.625  0.875 0.25 0.625  1 0.25 0.625  0 0.375 0.625  0.125 0.375 0.625  0.25 0.375 0.625  0.375 0.375 0.625  0.5 0.375 0.625  0.625 0.375 0.625  0.75 0.375 0.625  0.875 0.375 0.625  1 0.375 0.625  0 0.5 0.625  0.125 0.5 0.625  0.25 0.5 0.625  0.375 0.5 0.625  0.5 0.5 0.625  0.625 0.5 0.625  0.75 0.5 0.625  0.875 0.5 0.625  1 0.5 0.625  0 0.625 0.625  0.125 0.625 0.625  0.25 0.625 0.625  0.375 0.625 0.625  0.5 0.625 0.625  0.625 0.625 0.625  0.75 0.625 0.625  0.875 0.625 0.625  1 0.625 0.625  0 0.75 0.625  0.125 0.75 0.625  0.25 0.75 0.625  0.375 0.75 0.625  0.5 0.75 0.625  0.625 0.75 0.625  0.75 0.75 0.625  0.875 0.75 0.625  1 0.75 0.625  0 0.875 0.625  0.125 0.875 0.625  0.25 0.875 0.625  0.375 0.875 0.625  0.5 0.875 0.625  0.625 0.875 0.625  0.75 0.875 0.625  0.875 0.875 0.625  1 0.875 0.625  0 1 0.625  0.125 1 0.625  0.25 1 0.625  0.375 1 0.625  0.5 1 0.625  0.625 1 0.625  0.75 1 0.625  0.875 1 0.625  1 1 0.625  0 0 0.75  0.125 0 0.75  0.25 0 0.75  0.375 0 0.75  0.5 0 0.75  0.625 0 0.75  0.75 0 0.75  0.875 0 0.75  1 0 0.75  0 0.125 0.75  0.125 0.125 0.75  0.25 0.125 0.75  0.375 0.125 0.75  0.5 0.125 0.75  0.625 0.125 0.75  0.75 0.125 0.75  0.875 0.125 0.75  1 0.125 0.75  0 0.25 0.75  0.125 0.25 0.75  0.25 0.25 0.75  0.375 0.25 0.75  0.5 0.25 0.75  0.625 0.25 0.75  0.75 0.25 0.75  0.875 0.25 0.75  1 0.25 0.75  0 0.375 0.75  0.125 0.375 0.75  0.25 0.375 0.75  0.375 0.375 0.75  0.5 0.375 0.75  0.625 0.375 0.75  0.75 0.375 0.75  0.875 0.375 0.75  1 0.375 0.75  0 0.5 0.75  0.125 0.5 0.75  0.25 0.5 0.75  0.375 0.5 0.75  0.5 0.5 0.75  0.625 0.5 0.75  0.75 0.5 0.75  0.875 0.5 0.75  1 0.5 0.75  0 0.625 0.75  0.125 0.625 0.75  0.25 0.625 0.75  0.375 0.625 0.75  0.5 0.625 0.75  0.625 0.625 0.75  0.75 0.625 0.75  0.875 0.625 0.75  1 0.625 0.75  0 0.75 0.75  0.125 0.75 0.75  0.25 0.75 0.75  0.375 0.75 0.75  0.5 0.75 0.75  0.625 0.75 0.75  0.75 0.75 0.75  0.875 0.75 0.75  1 0.75 0.75  0 0.875 0.75  0.125 0.875 0.75  0.25 0.875 0.75  0.375 0.875 0.75  0.5 0.875 0.75  0.625 0.875 0.75  0.75 0.875 0.75  0.875 0.875 0.75  1 0.875 0.75  0 1 0.75  0.125 1 0.75  0.25 1 0.75  0.375 1 0.75  0.5 1 0.75  0.625 1 0.75  0.75 1 0.75  0.875 1 0.75  1 1 0.75  0 0 0.875  0.125 0 0.875  0.25 0 0.875  0.375 0 0.875  0.5 0 0.875  0.625 0 0.875  0.75 0 0.875  0.875 0 0.875  1 0 0.875  0 0.125 0.875  0.125 0.125 0.875  0.25 0.125 0.875  0.375 0.125 0.875  0.5 0.125 0.875  0.625 0.125 0.875  0.75 0.125 0.875  0.875 0.125 0.875  1 0.125 0.875  0 0.25 0.875  0.125 0.25 0.875  0.25 0.25 0.875  0.375 0.25 0.875  0.5 0.25 0.875  0.625 0.25 0.875  0.75 0.25 0.875  0.875 0.25 0.875  1 0.25 0.875  0 0.375 0.875  0.125 0.375 0.875  0.25 0.375 0.875  0.375 0.375 0.875  0.5 0.375 0.875  0.625 0.375 0.875  0.75 0.375 0.875  0.875 0.375 0.875  1 0.375 0.875  0 0.5 0.875  0.125 0.5 0.875  0.25 0.5 0.875  0.375 0.5 0.875  0.5 0.5 0.875  0.625 0.5 0.875  0.75 0.5 0.875  0.875 0.5 0.875  1 0.5 0.875  0 0.625 0.875  0.125 0.625 0.875  0.25 0.625 0.875  0.375 0.625 0.875  0.5 0.625 0.875  0.625 0.625 0.875  0.75 0.625 0.875  0.875 0.625 0.875  1 0.625 0.875  0 0.75 0.875  0.125 0.75 0.875  0.25 0.75 0.875  0.375 0.75 0.875  0.5 0.75 0.875  0.625 0.75 0.875  0.75 0.75 0.875  0.875 0.75 0.875  1 0.75 0.875  0 0.875 0.875  0.125 0.875 0.875  0.25 0.875 0.875  0.375 0.875 0.875  0.5 0.875 0.875  0.625 0.875 0.875  0.75 0.875 0.875  0.
[...]
<PointData  Vectors="f_480"> 
<DataArray  type="Float64"  Name="f_480"  NumberOfComponents="3" format="ascii">0.0000000000000000e+00 0.0000000000000000e+00 0.0000000000000000e+00  0.0000000000000000e+00 0.0000000000000000e+00 0.0000000000000000e+00  0.0000000000000000e+00 0.0000000000000000e+00 0.0000000000000000e+00  0.0000000000000000e+00 0.0000000000000000e+00 0.0000000000000000e+00  0.0000000000000000e+00 0.0000000000000000e+00 0.0000000000000000e+00  0.0000000000000000e+00 0.0000000000000000e+00 0.0000000000000000e+00  0.0000000000000000e+00 0.0000000000000000e+00 0.0000000000000000e+00  0.0000000000000000e+00 0.0000000000000000e+00 0.0000000000000000e+00  0.0000000000000000e+00 0.0000000000000000e+00 0.0000000000000000e+00  0.0000000000000000e+00 0.0000000000000000e+00 0.0000000000000000e+00  0.0000000000000000e+00 0.0000000000000000e+00 0.0000000000000000e+00  0.0000000000000000e+00 0.0000000000000000e+00 0.0000000000000000e+00  0.0000000000000000e+00 0.0000000000000000e+00 0.0000000000000000e+00  0.0000000000000000e+00 0.0000000000000000e+00 0.0000000000000000e+00  0.0000000000000000e+00 0.0000000000000000e+00 0.0000000000000000e+00  0.0000000000000000e+00 0.0000000000000000e+00 0.0000000000000000e+00  0.0000000000000000e+00 0.0000000000000000e+00 0.0000000000000000e+00  0.0000000000000000e+00 0.0000000000000000e+00 0.0000000000000000e+00  0.0000000000000000e+00 0.0000000000000000e+00 0.0000000000000000e+00  0.0000000000000000e+00 0.0000000000000000e+00 0.0000000000000000e+00  0.0000000000000000e+00 0.0000000000000000e+00 0.0000000000000000e+00  0.0000000000000000e+00 0.0000000000000000e+00 0.0000000000000000e+00  0.0000000000000000e+00 0.0000000000000000e+00 0.0000000000000000e+00  0.0000000000000000e+00 0.0000000000000000e+00 0.0000000000000000e+00  0.0000000000000000e+00 0.0000000000000000e+00 0.0000000000000000e+00  0.0000000000000000e+00 0.0000000000000000e+00 0.0000000000000000e+00  0.0000000000000000e+00 0.0000000000000000e+00 0.0000000000000000e+00  0.0000000000000000e+00 0.0000000000000000e+00 0.0000000000000000e+00  0.0000000000000000e+00 0.0000000000000000e+00 0.0000000000000000e+00  0.0000000000000000e+00 0.0000000000000000e+00 0.0000000000000000e+00  0.0000000000000000e+00 0.0000000000000000e+00 0.0000000000000000e+00  0.0000000000000000e+00 0.0000000000000000e+00 0.0000000000000000e+00  0.0000000000000000e+00 0.0000000000000000e+00 0.0000000000000000e+00  0.0000000000000000e+00 0.0000000000000000e+00 0.0000000000000000e+00  0.0000000000000000e+00 0.0000000000000000e+00 0.0000000000000000e+00  0.0000000000000000e+00 0.0000000000000000e+00 0.0000000000000000e+00  0.0000000000000000e+00 0.0000000000000000e+00 0.0000000000000000e+00  0.0000000000000000e+00 0.0000000000000000e+00 0.0000000000000000e+00  0.0000000000000000e+00 0.0000000000000000e+00 0.0000000000000000e+00  0.0000000000000000e+00 0.0000000000000000e+00 0.0000000000000000e+00  0.0000000000000000e+00 0.0000000000000000e+00 0.0000000000000000e+00  0.0000000000000000e+00 0.0000000000000000e+00 0.0000000000000000e+00  0.0000000000000000e+00 0.0000000000000000e+00 0.0000000000000000e+00  0.0000000000000000e+00 0.0000000000000000e+00 0.0000000000000000e+00  0.0000000000000000e+00 0.0000000000000000e+00 0.0000000000000000e+00  0.0000000000000000e+00 0.0000000000000000e+00 0.0000000000000000e+00  0.0000000000000000e+00 0.0000000000000000e+00 0.0000000000000000e+00  0.0000000000000000e+00 0.0000000000000000e+00 0.0000000000000000e+00  0.0000000000000000e+00 0.0000000000000000e+00 0.0000000000000000e+00  0.0000000000000000e+00 0.0000000000000000e+00 0.0000000000000000e+00  0.0000000000000000e+00 0.0000000000000000e+00 0.0000000000000000e+00  0.0000000000000000e+00 0.0000000000000000e+00 0.0000000000000000e+00  0.0000000000000000e+00 0.0000000000000000e+00 0.0000000000000000e+00  0.0000000000000000e+00 0.0000000000000000e+00 0.0000000000000000e+00  0.0000000000000000e+00 0.0000000000000000e+00 0.0000000000000000e+00  0.0000000000000000e+00 0.0000000000000000e+00 0.0000000000000000e+00  0.0000000000000000e+00 0.0000000000000000e+00 0.0000000000000000e+00  0.0000000000000000e+00 0.0000000000000000e+00 0.0000000000000000e+00  0.0000000000000000e+00 0.0000000000000000e+00 0.0000000000000000e+00  0.0000000000000000e+00 0.0000000000000000e+00 0.0000000000000000e+00  0.0000000000000000e+00 0.0000000000000000e+00 0.0000000000000000e+00  0.0000000000000000e+00 0.0000000000000000e+00 0.0000000000000000e+00  0.0000000000000000e+00 0.0000000000000000e+00 0.0000000000000000e+00  0.0000000000000000e+00 0.0000000000000000e+00 0.0000000000000000e+00  0.0000000000000000e+00 0.0000000000000000e+00 0.0000000000000000e+00  0.0000000000000000e+00 0.0000000000000000e+00 0.0000000000000000e+00  0.0000000000000000e+00 0.0000000000000000e+00 0.0000000000000000e+00  0.0000000000000000e+00 0.0000000000000000e+00 0.0000000000000000e+00  0.0000000000000000e+00 0.0000000000000000e+00 0.0000000000000000e+00  0.0000000000000000e+00 0.0000000000000000e+00 0.0000000000000000e+00  0.0000000000000000e+00 0.0000000000000000e+00 0.0000000000000000e+00  0.0000000000000000e+00 0.0000000000000000e+00 0.0000000000000000e+00  0.0000000000000000e+00 0.0000000000000000e+00 0.0000000000000000e+00  0.0000000000000000e+00 0.0000000000000000e+00 0.0000000000000000e+00  0.0000000000000000e+00 0.0000000000000000e+00 0.0000000000000000e+00  0.0000000000000000e+00 0.0000000000000000e+00 0.0000000000000000e+00  0.0000000000000000e+00 0.0000000000000000e+00 0.0000000000000000e+00  0.0000000000000000e+00 0.0000000000000000e+00 0.0000000000000000e+00  0.0000000000000000e+00 0.0000000000000000e+00 0.0000000000000000e+00  0.0000000000000000e+00 0.0000000000000000e+00 0.0000000000000000e+00  0.0000000000000000e+00 0.0000000000000000e+00 0.0000000000000000e+00  0.0000000000000000e+00 0.0000000000000000e+00 0.0000000000000000e+00  0.0000000000000000e+00 0.0000000000000000e+00 0.0000000000000000e+00  0.0000000000000000e+00 0.0000000000000000e+00 0.0000000000000000e+00  0.0000000000000000e+00 0.0000000000000000e+00 0.0000000000000000e+00  0.0000000000000000e+00 0.0000000000000000e+00 0.0000000000000000e+00  0.0000000000000000e+00 0.0000000000000000e+00 0.0000000000000000e+00  0.0000000000000000e+00 0.0000000000000000e+00 0.0000000000000000e+00  0.0000000000000000e+00 0.0000000000000000e+00 0.0000000000000000e+00  0.0000000000000000e+00 0.0000000000000000e+00 0.0000000000000000e+00  0.0000000000000000e+00 0.0000000000000000e+00 0.0000000000000000e+00  -4.4201497705433253e-03 -4.4247142121980748e-03 8.1074048235394904e-03  -1.3703073899647521e-02 -6.2863013794952714e-03 1.1348513519856536e-02  -2.2000644874417167e-02 -7.0940199208756639e-03 1.0094492605102933e-02  -2.4839813451176872e-02 -7.4962970530546309e-03 6.7183733718341049e-03  -2.0922829440406649e-02 -7.3780993338063306e-03 3.1028691546904860e-03  -1.2276389426741512e-02 -6.2855994605994893e-03 6.5911135880249497e-04  -3.5252258219465719e-03 -3.5844059129042688e-03 1.0047217071249925e-04  0.0000000000000000e+00 0.0000000000000000e+00 0.0000000000000000e+00  0.0000000000000000e+00 0.0000000000000000e+00 0.0000000000000000e+00  -6.2811392550468316e-03 -1.3717045140144948e-02 1.1348417584541892e-02  -2.0075072790044082e-02 -2.0092213080145187e-02 1.6555633630706827e-02  -3.2874137589480414e-02 -2.3026206831524374e-02 1.4915698735105553e-02  -3.7634064950572275e-02 -2.4092426702907028e-02 9.7212231470343771e-03  -3.2346038078102532e-02 -2.3344535043242607e-02 3.9833821540246391e-03  -1.9703411525266393e-02 -1.9880210535564970e-02 1.3770229504313607e-04  -6.1320688372620887e-03 -1.2377236409999718e-02 -3.9679010628256982e-04  0.0000000000000000e+00 0.0000000000000000e+00 0.0000000000000000e+00  0.0000000000000000e+00 0.0000000000000000e+00 0.0000000000000000e+00  -7.0892822259133320e-03 -2.2022106335653335e-02 1.0091725055764772e-02  -2.3008792805703560e-02 -3.2901862109815869e-02 1.4911458459353990e-02  -3.8058112605760072e-02 -3.8088071935848691e-02 1.2641741403059301e-02  -4.3906340616594187e-02 -3.9753470364312551e-02 6.5312985759139906e-03  -3.7994411591380159e-02 -3.8285901776190061e-02 1.6809358852773182e-05  -2.3220717465617782e-02 -3.2743727873302569e-02 -3.8171980623808886e-03  -7.1837975914724574e-03 -2.1212485432837477e-02 -2.8990577546225572e-03  0.0000000000000000e+00 0.0000000000000000e+00 0.0000000000000000e+00  0.0000000000000000e+00 0.0000000000000000e+00 0.0000000000000000e+00  -7.4925193883256915e-03 -2.4862288340264011e-02 6.7119529909430327e-03  -2.4076478042001005e-02 -3.7664072125809085e-02 9.7107616001961550e-03  -3.9723935292668856e-02 -4.3940236849204721e-02 6.5237263934895704e-03  -4.5879088484480107e-02 -4.5914244830673051e-02 -7.1564975912274449e-05  -3.9700374309646028e-02 -4.4235704624099426e-02 -6.6359624067138957e-03  -2.4103757100334754e-02 -3.8111073065840287e-02 -9.7219373917421612e-03  -7.2784794775696228e-03 -2.5214664125892260e-02 -6.6362634086967621e-03  0.0000000000000000e+00 0.0000000000000000e+00 0.0000000000000000e+00  0.0000000000000000e+00 0.0000000000000000e+00 0.0000000000000000e+00  -7.3755395820135107e-03 -2.0939241217572614e-02 3.0941935485626483e-03  -2.3331272102728440e-02 -3.2368583910086408e-02 3.9685396550807597e-03  -3.8259160253916603e-02 -3.8021060519005265e-02 2.9563639018065338e-06  -4.4202153888215474e-02 -3.9729498389969017e-02 -6.6434466266688721e-03  -3.8291193261860770e-02 -3.8320449498045361e-02 -1.2838606124466774e-02  -2.3183896530056588e-02 -3.3284981471615585e-02 -1.5070735722523007e-02  -6.8772097086467910e-03 -2.2343970343404945e-02 -1.0138770769800499e-02  0.0000000000000000e+00 0.0000000000000000e+00 0.0000000000000000e+00  0.0000000000000000e+00 0.0000000000000000e+00 0.0000000000000000e+00  -6.2839657577731748e-03 -1.2283331658581071e-02 6.5157985905116983e-04  -1.9869801011395360e-02 -1.9713440765101037e-02 1.2364096525982189e-04  -3.2721126864638746e-02 -2.3233555807940953e-02 -3.8317498051632336e-03  -3.8081416916332579e-02 -2.4119053899210523e-02 -9.7320185987258955e-03  -3.3257902710622109e-02 -2.3200501422817026e-02 -1.5074680301803962e-02  -2.0320393404359680e-02 -2.0336861976706189e-02 -1.6756894383347910e-02  -6.0864301360757404e-03 -1.3909858912864599e-02 -1.1481786561540206e-02  0.0000000000000000e+00 0.0000000000000000e+00 0.0000000000000000e+00  0.0000000000000000e+00 0.0000000000000000e+00 0.0000000000000000e+00  -3.5833214182897722e-03 -3.5259252354698737e-03 9.7784747347365346e-05  -1.2369782073790482e-02 -6.1333969405603555e-03 -4.0407439216177602e-04  -2.1195755587032593e-02 -7.1860556318518939e-03 -2.9072091950925662e-03  -2.5192155428038814e-02 -7.2818965940155446e-03 -6.6420347681647564e-03  -2.2322697594151140e-02 -6.8815590322993904e-03 -1.0140920097653508e-02  -1.3896103927352995e-02 -6.0912649613867279e-03 -1.1481493869764912e-02  -4.3113114329928742e-03 -4.3157550025543934e-03 -8.3052038117817032e-03  0.0000000000000000e+00 0.0000000000000000e+00 0.0000000000000000e+00  0.0000000000000000e+00 0.0000000000000000e+00 0.0000000000000000e+00  0.0000000000000000e+00 0.0000000000000000e+00 0.0000000000000000e+00  0.0000000000000000e+00 0.0000000000000000e+00 0.0000000000000000e+00  0.0000000000000000e+00 0.0000000000000000e+00 0.0000000000000000e+00  0.0000000000000000e+00 0.0000000000000000e+00 0.0000000000000000e+00  0.0000000000000000e+00 0.0000000000000000e+00 0.0000000000000000e+00  0.0000000000000000e+00 0.0000000000000000e+00 0.0000000000000000e+00  0.0000000000000000e+00 0.0000000000000000e+00 0.0000000000000000e+00  0.0000000000000000e+00 0.0000000000000000e+00 0.0000000000000000e+00  0.0000000000000000e+00 0.0000000000000000e+00 0.0000000000000000e+00  0.0000000000000000e+00 0.0000000000000000e+00 0.0000000000000000e+00  0.0000000000000000e+00 0.0000000000000000e+00 0.0000000000000000e+00  0.0000000000000000e+00 0.0000000000000000e+00 0.0000000000000000e+00  0.0000000000000000e+00 0.0000000000000000e+00 0.0000000000000000e+00  0.0000000000000000e+00 0.0000000000000000e+00 0.0000000000000000e+00  0.0000000000000000e+00 0.0000000000000000e+00 0.0000000000000000e+00  0.0000000000000000e+00 0.0000000000000000e+00 0.0000000000000000e+00  0.0000000000000000e+00 0.0000000000000000e+00 0.0000000000000000e+00  0.0000000000000000e+00 0.0000000000000000e+00 0.0000000000000000e+00  -8.9853282525007936e-03 -8.9918154874790625e-03 3.0690222958591713e-02  -2.5059380069456082e-02 -1.2990985594224522e-02 4.0794741820382931e-02  -3.7814583961494105e-02 -1.4565392829511359e-02 3.6647566297888116e-02  -4.1708068484716171e-02 -1.4945281958708418e-02 2.5456624282872060e-02  -3.5286531371615408e-02 -1.4223024242096193e-02 1.2969148681540137e-02  -2.1269095515774102e-02 -1.1776287256845897e-02 3.6888723399759351e-03  -6.3668216949098787e-03 -6.4888183841842985e-03 2.3884661634619993e-04  0.0000000000000000e+00 0.0000000000000000e+00 0.0000000000000000e+00  0.0000000000000000e+00 0.0000000000000000e+00 0.0000000000000000e+00  -1.2984047808532231e-02 -2.5078615513206139e-02 4.0794291662790215e-02  -3.7421340826842980e-02 -3.7444145760857438e-02 5.6148638991520373e-02  -5.7754304487784860e-02 -4.2862541245111768e-02 5.0337218022004283e-02  -6.4759981985851298e-02 -4.4280857030493392e-02 3.3253809059332493e-02  -5.6005672557285134e-02 -4.2239426287067054e-02 1.4050275668761101e-02  -3.5124952436349791e-02 -3.5410690050013939e-02 3.1612509445364976e-04  -1.1499557759264891e-02 -2.1454912851811388e-02 -3.1403914884849341e-03  0.0000000000000000e+00 0.0000000000000000e+00 0.0000000000000000e+00  0.0000000000000000e+00 0.0000000000000000e+00 0.0000000000000000e+00  -1.4558882519601128e-02 -3.7843766618062248e-02 3.6639060485912742e-02  -4.2839351912863387e-02 -5.7790922432250591e-02 5.0324711190520857e-02  -6.7036743477897814e-02 -6.7075936838985981e-02 4.2189017973452883e-02  -7.5975552953871456e-02 -6.9724092641261240e-02 2.1988572795761167e-02  -6.6377429262925780e-02 -6.6750090260158407e-02 2.1437145269819356e-04  -4.2051249466934504e-02 -5.6579047402147281e-02 -1.3559538775265612e-02  -1.3924858410976446e-02 -3.5738179064846345e-02 -1.2531041614681519e-02  0.0000000000000000e+00 0.0000000000000000e+00 0.0000000000000000e+00  0.0000000000000000e+00 0.0000000000000000e+00 0.0000000000000000e+00  -1.4939544387799790e-02 -4.1739204233949549e-02 2.5437013600316433e-02  -4.4258940082844665e-02 -6.4800152056552429e-02 3.3223148561651768e-02  -6.9685179030228930e-02 -7.6020061895101215e-02 2.1966624111254496e-02  -7.9449389330450579e-02 -7.9495263750814296e-02 1.1338030059604121e-04  -6.9766761642170563e-02 -7.6509964395153091e-02 -2.1828783925530993e-02  -4.4335503914188383e-02 -6.5535815609259640e-02 -3.3201089177016987e-02  -1.4691615403605087e-02 -4.2330926156585374e-02 -2.5374906661411623e-02  0.0000000000000000e+00 0.0000000000000000e+00 0.0000000000000000e+00  0.0000000000000000e+00 0.0000000000000000e+00 0.0000000000000000e+00  -1.4218380265320544e-02 -3.5310905101703136e-02 1.2942111459323349e-02  -4.2220252253953254e-02 -5.6037480753418634e-02 1.4006443893682944e-02  -6.6714305065475946e-02 -6.6413681292894919e-02 1.7390661168976537e-04  -7.6466162327587350e-02 -6.9805487721734102e-02 -2.1850698462997375e-02  -6.7542341577848872e-02 -6.7580725579267961e-02 -4.2465505103375795e-02  -4.3171828782510517e-02 -5.8516211490289474e-02 -5.0887963401185198e-02  -1.4383351326001853e-02 -3.8435727953949332e-02 -3.7067793672087991e-02  0.0000000000000000e+00 0.0000000000000000e+00 0.0000000000000000e+00  0.0000000000000000e+00 0.0000000000000000e+00 0.0000000000000000e+00  -1.1772470569595005e-02 -2.1281598237799616e-02 3.6637354636843080e-03  -3.5394520234217360e-02 -3.5141248058994760e-02 2.7333598002871788e-04  -5.6547896978680456e-02 -4.2070400449655189e-02 -1.3603049447917338e-02  -6.5496548872462396e-02 -4.4356931750538495e-02 -3.3231320097909099e-02  -5.8480551481573925e-02 -4.3194151101122062e-02 -5.0900054055930580e-02  -3.7870057581583495e-02 -3.7892024071891996e-02 -5.7111622112506477e-02  -1.2866086390552749e-02 -2.5433968654447612e-02 -4.1604566803560866e-02  0.0000000000000000e+00 0.0000000000000000e+00 0.0000000000000000e+00  0.0000000000000000e+00 0.0000000000000000e+00 0.0000000000000000e+00  -6.4856332399389699e-03 -6.3697747443385317e-03 2.2616331147994997e-04  -2.1442280964283831e-02 -1.1503276158580858e-02 -3.1650647917106107e-03  -3.5714027971647688e-02 -1.3929378864541354e-02 -1.2557247125287383e-02  -4.2300176889778635e-02 -1.4697068834556877e-02 -2.5393439813773299e-02  -3.8406983564418483e-02 -1.4389455091147559e-02 -3.7075147999899118e-02  -2.5415044386371103e-02 -1.2872624675195454e-02 -4.1604232191907405e-02  -8.9435578749994353e-03 -8.9498970294522914e-03 -3.1556848741930002e-02  0.0000000000000000e+00 0.0000000000000000e+00 0.0000000000000000e+00  0.0000000000000000e+00 0.0000000000000000e+00 0.0000000000000000e+00  0.0000000000000000e+00 0.0000000000000000e+00 0.0000000000000000e+00  0.0000000000000000e+00 0.0000000000000000e+00 0.0000000000000000e+00  0.0000000000000000e+00 0.0000000000000000e+00 0.0000000000000000e+00  0.0000000000000000e+00 0.0000000000000000e+00 0.0000000000000000e+00  0.0000000000000000e+00 0.0000000000000000e+00 0.0000000000000000e+00  0.0000000000000000e+00 0.0000000000000000e+00 0.0000000000000000e+00  0.0000000000000000e+00 0.0000000000000000e+00 0.0000000000000000e+00  0.0000000000000000e+00 0.0000000000000000e+00 0.0000000000000000e+00  0.0000000000000000e+00 0.0000000000000000e+00 0.0000000000000000e+00  0.0000000000000000e+00 0.0000000000000000e+00 0.0000000000000000e+00  0.0000000000000000e+00 0.0000000000000000e+00 0.0000000000000000e+00  0.0000000000000000e+00 0.0000000000000000e+00 0.0000000000000000e+00  0.0000000000000000e+00 0.0000000000000000e+00 0.0000000000000000e+00  0.0000000000000000e+00 0.0000000000000000e+00 0.0000000000000000e+00  0.0000000000000000e+00 0.0000000000000000e+00 0.0000000000000000e+00  0.0000000000000000e+00 0.0000000000000000e+00 0.0000000000000000e+00  0.0000000000000000e+00 0.0000000000000000e+00 0.0000000000000000e+00  0.0000000000000000e+00 0.0000000000000000e+00 0.0000000000000000e+00  -1.4038083330521691e-02 -1.4044573872406835e-02 6.8065625036025576e-02  -3.7551924845194318e-02 -1.9959698147267800e-02 8.7083808399332274e-02  -5.4456979737737998e-02 -2.2037367436139224e-02 7.7925040246926494e-02  -5.9159542128098722e-02 -2.2397000476190806e-02 5.5688530656462516e-02  -5.0717070265792759e-02 -2.1290178579830371e-02 3.0531190130049374e-02  -3.1819263802454555e-02 -1.7842613513536196e-02 1.0185514392441225e-02  -1.0035201425430630e-02 -1.0113650087040436e-02 4.4296898163122695e-04  0.0000000000000000e+00 0.0000000000000000e+00 0.0000000000000000e+00  0.0000000000000000e+00 0.0000000000000000e+00 0.0000000000000000e+00  -1.9953610148726028e-02 -3.7570759209617104e-02 8.7083078361207475e-02  -5.5269385679591186e-02 -5.5289849690280925e-02 1.1471646547171152e-01  -8.2198932004437050e-02 -6.2488775281514954e-02 1.0132108987453156e-01  -9.0843369094996768e-02 -6.4043152446064552e-02 6.7634338893117082e-02  -7.9442821082215412e-02 -6.1082937915659781e-02 2.9773671727842163e-02  -5.1525694041867805e-02 -5.1711675014188455e-02 7.9981129264474610e-04  -1.7584693085482484e-02 -3.1926079506288542e-02 -8.8434116740677450e-03  0.0000000000000000e+00 0.0000000000000000e+00 0.0000000000000000e+00  0.0000000000000000e+00 0.0000000000000000e+00 0.0000000000000000e+00  -2.2031867221713328e-02 -5.4484731403708318e-02 7.7910369134180410e-02  -6.2468478456037195e-02 -8.2231269973262508e-02 1.0129973336062550e-01  -9.4394327209446863e-02 -9.4428221634983531e-02 8.2904559108625431e-02  -1.0559314730318616e-01 -9.7605217224710120e-02 4.3193902370775590e-02  -9.3322918039848948e-02 -9.3599492630158015e-02 5.2952212232410185e-04  -6.1103855773778346e-02 -8.0068628341784048e-02 -2.8549798541379547e-02  -2.1078910030489197e-02 -5.1259982809983902e-02 -2.9500462423190314e-02  0.0000000000000000e+00 0.0000000000000000e+00 0.0000000000000000e+00  0.0000000000000000e+00 0.0000000000000000e+00 0.0000000000000000e+00  -2.239