<?xml version="1.0"?>
<VTKFile type="UnstructuredGrid"  version="0.1"  >
<UnstructuredGrid>
<Piece  NumberOfPoints="1066" NumberOfCells="2002">
<Points>
<DataArray  type="Float64"  NumberOfComponents="3"  format="ascii">-1 1 0  -1 -1 0  0 -1 0  0 0 0  1 0 0  1 1 0  -1 0 0  0 1 0  0 -0.5 0  -1 -0.5 0  -0.5 -1 0  -0.5 1 0  -1 0.5 0  1 0.5 0  0.5 1 0  0.5 0 0  -0.4166666666666667 0.4166666666666667 0  -0.5 -0.25 0  0.25 0.5 0  -0.625 -0.625 0  0.625 0.375 0  -0.1053921568627451 0.6348039215686274 0  -0.7380952380952381 0.25 0  -0.28125 -0.71875 0  -0.6770833333333334 0.6770833333333334 0  0.71875 0.71875 0  -0.447017916077322 0.08191890617633191 0  -0.1085353122730575 0.3081313543936093 0  -0.3875187227668845 0.7062312772331155 0  -0.75 -0.375 0  0.1454422194409678 0.7602211097204838 0  0.375 0.25 0  -0.2785326086956522 -0.4320652173913043 0  0.4320652173913043 0.7214673913043479 0  -0.7105977894832036 -0.04619557896640717 0  -0.2528701482407906 -0.1192597035184189 0  1 0.25 0  0.75 0 0  -0.75 -1 0  -1 -0.75 0  0.25 1 0  -1 -0.25 0  -0.75 1 0  0 -0.75 0  -0.25 -1 0  -1 0.25 0  -1 0.75 0  1 0.75 0  0.75 1 0  0.25 0 0  -0.25 1 0  0 -0.25 0  0.1340382421326261 0.285769121066313 0  -0.2192518626687895 0.1074543072246201 0  -0.7752976190476191 0.4732142857142857 0  0.03777648397223582 0.4763750798483721 0  0.4620753803475469 0.5112261410426409 0  -0.4264368775807627 -0.5740185511294631 0  -0.625 -0.8333333333333334 0  0.625 0.1666666666666667 0  0.798611111111111 0.2708333333333333 0  -0.8125 -0.5625 0  0.7864583333333334 0.515625 0  -0.212785768461136 0.8035073855376288 0  -0.8184523809523809 -0.8184523809523809 0  -0.2772504674066899 0.5488821937416017 0  -0.5638248415463649 -0.4348503169072702 0  -0.5203927892873141 0.5733572107126859 0  -0.625 0.8585349462365592 0  -0.8158532234335381 0.8158532234335381 0  -0.3496324880537026 0.2418389046065486 0  -0.543404045977127 0.26780644241167 0  -0.4375 -0.8229166666666667 0  -0.8690476190476191 0.125 0  -0.0314294275080956 0.8004214332389695 0  -0.8711516477451908 0.625 0  0.625 0.8715277777777778 0  -0.1284722222222222 -0.625 0  -0.627215057214452 0.11091945258738 0  -0.871564947458939 -0.125 0  -0.153125 -0.846875 0  0.846875 0.846875 0  1 0.125 0  -0.4256050005729202 -0.09168714807690875 0  0 -0.375 0  -0.1772529295205136 -0.2829187418269885 0  0.375 1 0  0.3014669189857678 0.8348712448174203 0  -0.6724871776117968 -0.2175256447764064 0  0.6234436084822068 0.5741339806051801 0  0.001386496772729895 0.1736691377962176 0  -0.131255659811195 0.4717013683396717 0  -0.3377403823054406 -0.257771902905202 0  -0.375 1 0  0.8681175595238095 0.6556919642857143 0  -0.2608422461317439 0.3761490645263582 0  -0.8690476190476191 0.3428819444444444 0  -0.4664744117609373 0.8444182597573975 0  -0.6517427775424292 0.3790994180286428 0  0.1540976495220332 0.1274964721183419 0  1 0.375 0  0.1310704661591709 0.6033300858541432 0  0.283178673724156 0.6582945992483733 0  -0.125 1 0  -0.5739701956109063 -0.1057078650595667 0  -0.4248811351503765 -0.3793807610172282 0  -0.3213255454167493 0.006740753593078519 0  -0.2639643719806763 -0.575558574879227 0  0.575558574879227 0.7360356280193237 0  -0.1430404589371981 -0.4815066425120773 0  0.4432790807885255 0.8662833366051317 0  0 -0.125 0  -0.297265625 -0.862890625 0  0.125 1 0  -0.145436282391303 -0.01934098460236217 0  0.2950672829310669 0.1337163585344665 0  0.8448748043818466 0.1227503912363067 0  -0.6874719167180324 -0.4999859583590162 0  -0.875 -0.4375 0  0.5208333333333334 0.2708333333333333 0  0.3616507606950939 0.399575380347547 0  -0.8543401807245865 -0.2711803614491731 0  0.4344878450763502 0.1234939225381751 0  -0.5375434859082332 0.717661896853494 0  -0.6450174292283248 0.5160879008421021 0  -0.7514880952380952 -0.6919642857142857 0  -0.5010996434171471 -0.6953948376232622 0  -1 -0.625 0  -0.2582128456264357 0.6795353630619356 0  -1 0.875 0  -0.875 1 0  -0.8835632306814941 -0.6875 0  -0.3394026512179202 0.8253731729597156 0  -0.875 -1 0  -1 -0.875 0  0.8880843495934959 0.4375 0  0.0367223624388119 0.6910764569410784 0  0.2615514391055298 0.3152583753235904 0  0.0625 0.8878935439095378 0  -0.1273070754986592 -0.160543044961911 0  -0.2189625940478212 0.2381752314270573 0  -0.8328024549176731 -0.0003776378104099476 0  0.375 0 0  -1 -0.375 0  0.125 0 0  -0.125 -1 0  0 -0.875 0  0 -0.625 0  0.875 0 0  0.625 1 0  -1 0.625 0  -1 -0.125 0  -1 0.125 0  -0.625 1 0  0.625 0 0  -0.625 -1 0  1 0.625 0  1 0.875 0  0.875 1 0  -1 0.375 0  -0.375 -1 0  -0.5413088712465005 0.4423370764309834 0  0.5021815938691322 0.3936517394642011 0  0.7528097587719298 0.3912570053606238 0  0.1854458991294115 0.8769873105267281 0  -0.3966687333356567 0.582507221281458 0  0.017312859432945 0.3464298072114061 0  0.1520915304933911 0.4144971012335941 0  -0.6341754397403996 -0.3341976959224977 0  -0.08564362394966704 0.08752384389757339 0  -0.7475024375077767 0.1287610569809362 0  0.5105109962466823 0.6254023899579764 0  0.3531050849263975 0.561013530116843 0  -0.3364368707563432 0.1241390232369397 0  0.9046934865900382 0.3125 0  -0.5078195952665543 -0.01370407657217318 0  -0.7578418819188018 0.59039693199147 0  -0.8911029511385831 0.457630732644321 0  0.728877013625975 0.1143660935528146 0  0.6807621627851316 0.47748587209555 0  -0.1673611111111111 -0.7329861111111111 0  0.7329861111111111 0.8326388888888889 0  -0.1075969041262288 0.1967372783773208 0  -0.3926465260387641 -0.7209260442751872 0  -0.06250000000000001 0.9075784153978477 0  -0.7608913483634644 0.3639675816471853 0  -0.7608815687160509 -0.1472843785633988 0  0.8994762243227933 0.548552037332427 0  -0.8479014475108225 0.2339409722222222 0  0.5666936618330399 0.4812852614633681 0  0.2209078121141329 0.2138900331412769 0  -0.1875 0.9100666767511092 0  -0.002890634579267901 0.5835286923450195 0  0.7657126143029676 0.6215569825454337 0  -0.5271579041393868 0.1582976030506575 0  -0.6508228291316527 -0.7291666666666667 0  0.625 0.2708333333333334 0  0.5398946345267419 0.1002873574382769 0  -0.6875 -0.9166666666666667 0  -0.5625 -0.9166666666666667 0  -0.6145726437401711 0.003526382672517162 0  -0.5390077243011293 -0.5477500163793804 0  -0.3773968515790759 -0.4770854161148048 0  0.7142645529438691 0.2146516710194772 0  -0.1119803166248119 -0.3739146499867094 0  -0.7868135738762577 0.6983486905292563 0  -0.8907853456887617 0.7349941230586937 0  0.9215147221778196 0.1875 0  0.05832848383709738 0.08637443493900702 0  -0.1647053721348516 0.7155803476090714 0  -0.7202042748917749 -0.5981128246753247 0  -0.90625 -0.53125 0  -0.78125 -0.46875 0  -0.714335168721991 0.7786013880448804 0  -0.429300315487313 0.1807416161735349 0  -0.3125 0.9217988672541995 0  -0.8125 0.9185024305424627 0  -0.7223065571427687 0.877398420931443 0  -0.5183029131888395 -0.3471242289211771 0  -0.4429978111934294 0.281092557636982 0  -0.6426408986478672 0.2795817484386994 0  -0.06691237974321128 0.3972758679150619 0  -0.3385235211323684 -0.6391970703876763 0  -0.8125 -0.9198868071818891 0  -0.9081573884446261 -0.7813915416098677 0  -0.7198547149502305 -0.8015636753053776 0  -0.9127280764323391 0.8304777962191686 0  -0.9090218332864629 -0.9090218332864629 0  0.818656994047619 0.746968005952381 0  -0.1766519737301065 0.5625018446840587 0  -0.3228951133780443 0.457400441805223 0  -0.2271959323756581 0.4661662778633191 0  0.4291172771148606 0.3302132192672673 0  -0.474799927732057 -0.4744586951550465 0  0.1546558946393902 0.5103691032214466 0  -0.7543596458728958 -0.2750400190386132 0  -0.4930629171941668 0.3611602470002761 0  -0.5625 0.9292674731182796 0  -0.4670321895988673 0.6528706775446687 0  -0.6111089467385603 0.6065325902789365 0  -0.4531512730939857 0.5051921796647932 0  -0.4159472675818778 -0.1928619696890267 0  -0.5333081138977825 -0.7910789498399147 0  -0.4375 -0.9224877450980392 0  -0.353233559236062 0.3407234792992738 0  -0.6205731793177731 0.7636993854042075 0  0.4976718605548645 0.7892292694459953 0  0.2686286416509047 0.4084328492470218 0  -0.3328385170002774 -0.3533098842846522 0  -0.2314236111111111 -0.798828125 0  -0.1263842282296248 0.8392846221436558 0  -0.6979926705334714 0.04814677181996406 0  0.5340323036859247 0.8726213302492312 0  0.06053309269828401 0.7958378794235653 0  -0.05331367300548859 0.7108704909726752 0  0.9095177520032207 0.7371646974898138 0  -0.06766581632653063 -0.8125 0  0.8125 0.9323341836734694 0  -0.2187890625 -0.9125390625000001 0  -0.9345238095238095 0.1875 0  -0.9345238095238095 0.0625 0  0.7134051364476723 0.3073482758635454 0  0.3125 0.9288949261476287 0  -0.4042724123663804 0.9125286410300845 0  -0.4949999542369525 -0.1493596599511396 0  -0.09239407266665742 -0.2461724613407035 0  -0.2093366127645507 -0.1984440709306872 0  -0.2059360412155581 -0.3724019555122094 0  -0.0804091139840676 -0.0827568723285774 0  -0.8427981025467879 0.5367463229836719 0  -0.9355758238725954 0.5625 0  0.6540089330334833 0.7841756205230718 0  -0.2158243794769282 -0.6540089330334833 0  0.7035166556728232 0.9201801158018177 0  -0.0642361111111111 -0.6875 0  -0.07885380226553393 -0.5474762618690654 0  -0.9357824737294695 -0.06250000000000001 0  -0.9357824737294695 -0.1875 0  -0.3439411677432879 -0.13494020852379 0  -0.9347182854684236 -0.3125 0  0.4170932698807319 0.6291798952220281 0  -0.6777923487058936 0.1843365303261547 0  -0.2367314998430761 -0.02889569893956546 0  0.2455186592956644 0.7514304800722968 0  0.338536877499326 0.7348609577948819 0  0.1885710820068421 0.6771665959432455 0  -0.9213577773344295 0.9213577773344295 0  0.9137392241379311 0.9137392241379311 0  0.9231189055495981 0.07688109445040187 0  -0.08626077586206894 -0.9137392241379311 0  -0.6639647901052842 -0.1257262374630617 0  -0.5902710222284796 -0.2551544903458088 0  -0.4117988467768269 -0.001860686761120153 0  -0.6503932413280177 -0.4204449326742939 0  -0.5437148183576677 0.8044235003728686 0  -0.03875102938182723 0.2530182418237549 0  0.05153520609246165 0.2488621202873337 0  0.6804294394047085 0.6402914975389431 0  -0.5461550659065946 0.06907378263691563 
[...]
<PointData  Vectors="f_563"> 
<DataArray  type="Float64"  Name="f_563"  NumberOfComponents="3" format="ascii">-1.1968996079439144e+03 1.1968996079439150e+03 0.0000000000000000e+00  -1.6460215221962303e+03 4.3741950083932511e+02 0.0000000000000000e+00  -1.9278711267317856e+03 0.0000000000000000e+00 0.0000000000000000e+00  0.0000000000000000e+00 5.2001957153515150e+03 0.0000000000000000e+00  0.0000000000000000e+00 1.8997588524071623e+03 0.0000000000000000e+00  -4.4912191425231481e+02 1.6460215221962314e+03 0.0000000000000000e+00  -1.6947065495828797e+03 9.3274647170067260e+02 0.0000000000000000e+00  -9.6701238070649185e+02 1.5369761408101167e+03 0.0000000000000000e+00  -2.3752821244775755e+03 -0.0000000000000000e+00 0.0000000000000000e+00  -1.7399775147403350e+03 6.4361370007441860e+02 0.0000000000000000e+00  -1.8187088453929828e+03 2.5310100114098327e+02 0.0000000000000000e+00  -1.1540039878558573e+03 1.3613695821238525e+03 0.0000000000000000e+00  -1.4638743043616423e+03 1.1636347940930946e+03 0.0000000000000000e+00  -3.5070635406398742e+02 1.7989507677973677e+03 0.0000000000000000e+00  -6.4361370007441667e+02 1.6338933103316806e+03 0.0000000000000000e+00  -8.2808301532029418e+01 2.2789215002887331e+03 0.0000000000000000e+00  -1.6227542455409102e+03 1.4735439139419329e+03 0.0000000000000000e+00  -2.1161574634028962e+03 7.4709802337939902e+02 0.0000000000000000e+00  -8.3541178529759372e+02 2.0466963258613155e+03 0.0000000000000000e+00  -1.9096759413867812e+03 5.0849267406908416e+02 0.0000000000000000e+00  -4.3019968765851286e+02 2.0222973579447248e+03 0.0000000000000000e+00  -1.2759949412027440e+03 1.7628102151230657e+03 0.0000000000000000e+00  -1.7070199024185888e+03 1.1817151270356205e+03 0.0000000000000000e+00  -2.0715751951425832e+03 2.4379224520322543e+02 0.0000000000000000e+00  -1.4038140172908684e+03 1.3034841735866219e+03 0.0000000000000000e+00  -5.4382376419287948e+02 1.7459619416987534e+03 0.0000000000000000e+00  -2.1023049856637135e+03 1.2842927441646198e+03 0.0000000000000000e+00  -1.6533487022122365e+03 2.1602915448657905e+03 0.0000000000000000e+00  -1.3227554688842995e+03 1.4638194913233265e+03 0.0000000000000000e+00  -1.8840268599991959e+03 7.0116969723900502e+02 0.0000000000000000e+00  -9.7656750586290264e+02 1.7513048132791891e+03 0.0000000000000000e+00  -4.9233393038074701e+02 2.2851715478438937e+03 0.0000000000000000e+00  -2.3170408718972058e+03 4.5778432761663726e+02 0.0000000000000000e+00  -6.9755376365326379e+02 1.8043384888144683e+03 0.0000000000000000e+00  -1.9228534755938590e+03 9.6350354544686616e+02 0.0000000000000000e+00  -2.7021996184799673e+03 9.3593986163789464e+02 0.0000000000000000e+00  -2.1482798717576247e+02 1.8683840435044137e+03 0.0000000000000000e+00  -5.2788307127219241e+01 2.0233872575542657e+03 0.0000000000000000e+00  -1.7473959627805314e+03 3.6986262495186571e+02 0.0000000000000000e+00  -1.7008271072945593e+03 5.1952375305851410e+02 0.0000000000000000e+00  -8.2317153526953371e+02 1.5996508032422435e+03 0.0000000000000000e+00  -1.7235772622579982e+03 8.0645393670457270e+02 0.0000000000000000e+00  -1.1894889416434269e+03 1.2508687621347240e+03 0.0000000000000000e+00  -2.0606549133487010e+03 -0.0000000000000000e+00 0.0000000000000000e+00  -1.9050726730204385e+03 1.4048347952375826e+02 0.0000000000000000e+00  -1.5849023920820648e+03 1.0777643045525192e+03 0.0000000000000000e+00  -1.3375960573849791e+03 1.1839513411315161e+03 0.0000000000000000e+00  -4.2356083936824461e+02 1.7124035803992651e+03 0.0000000000000000e+00  -5.5068595700793958e+02 1.6391563881173308e+03 0.0000000000000000e+00  -1.6037738419348671e+02 2.8435539774049612e+03 0.0000000000000000e+00  -1.0771658459543576e+03 1.4569452863381614e+03 0.0000000000000000e+00  -2.9644955281032098e+03 1.4766247232898104e+02 0.0000000000000000e+00  -1.0868143003299795e+03 2.5293106993660117e+03 0.0000000000000000e+00  -2.3592604345538093e+03 1.7848241172079881e+03 0.0000000000000000e+00  -1.5249474802102820e+03 1.2615804270908729e+03 0.0000000000000000e+00  -1.2046588020573245e+03 1.9568493067641768e+03 0.0000000000000000e+00  -6.3826530391603558e+02 1.9877241226420779e+03 0.0000000000000000e+00  -2.0709704093706491e+03 4.1893636673977210e+02 0.0000000000000000e+00  -1.8301546319394758e+03 3.7038054283039293e+02 0.0000000000000000e+00  -2.7096272356522945e+02 2.0901424032336090e+03 0.0000000000000000e+00  -2.7089446184754411e+02 1.9478109758723062e+03 0.0000000000000000e+00  -1.8103178952267601e+03 5.9707650253782299e+02 0.0000000000000000e+00  -3.9945917915083533e+02 1.8607594644121461e+03 0.0000000000000000e+00  -1.1938642344712009e+03 1.5610990008663289e+03 0.0000000000000000e+00  -1.7652477732605855e+03 4.3817476055451920e+02 0.0000000000000000e+00  -1.4685133587514849e+03 1.6524576489353306e+03 0.0000000000000000e+00  -2.0852622937946880e+03 6.3232613651872259e+02 0.0000000000000000e+00  -1.4466347847301774e+03 1.4196814888455810e+03 0.0000000000000000e+00  -1.2842529317819963e+03 1.3212866450135450e+03 0.0000000000000000e+00  -1.2960739117833575e+03 1.2277351941360223e+03 0.0000000000000000e+00  -1.8699981788935854e+03 1.6100855600679326e+03 0.0000000000000000e+00  -1.7692680742157700e+03 1.3008567818809704e+03 0.0000000000000000e+00  -1.8914209760332506e+03 2.7906025079974211e+02 0.0000000000000000e+00  -1.6899456989896171e+03 1.0347191626153574e+03 0.0000000000000000e+00  -1.0746022839342356e+03 1.6566503461219127e+03 0.0000000000000000e+00  -1.4350537550702106e+03 1.2114941245822556e+03 0.0000000000000000e+00  -6.0235400821439464e+02 1.6745218196067392e+03 0.0000000000000000e+00  -2.1701785164411358e+03 1.2926726741036578e+02 0.0000000000000000e+00  -1.8440942170457417e+03 1.1195833584264244e+03 0.0000000000000000e+00  -1.7587271658609031e+03 9.1395987106669475e+02 0.0000000000000000e+00  -1.9953912112200842e+03 1.2851089230963271e+02 0.0000000000000000e+00  -4.7196639801141464e+02 1.6777900838515416e+03 0.0000000000000000e+00  -9.1950899039308979e+01 1.8964806832583363e+03 0.0000000000000000e+00  -2.3002260825123199e+03 1.0790305944448187e+03 0.0000000000000000e+00  -2.5862110454151561e+03 1.0060728280465491e+02 0.0000000000000000e+00  -2.7228805606848664e+03 4.9527211744830970e+02 0.0000000000000000e+00  -7.1277137635821396e+02 1.6289271172523627e+03 0.0000000000000000e+00  -8.3520472772970288e+02 1.7233824980131465e+03 0.0000000000000000e+00  -1.9885629362652651e+03 7.9734307522769723e+02 0.0000000000000000e+00  -5.6446764179067247e+02 1.8478749755265317e+03 0.0000000000000000e+00  -1.7387532817307260e+03 2.7381332983381294e+03 0.0000000000000000e+00  -1.3878470858180690e+03 1.8849052078661991e+03 0.0000000000000000e+00  -2.3472210919094773e+03 7.8088708601096300e+02 0.0000000000000000e+00  -1.1354119483523002e+03 1.3965737440708824e+03 0.0000000000000000e+00  -4.2368509394462404e+02 1.7579541434860967e+03 0.0000000000000000e+00  -1.6363540141174947e+03 1.7992997676860218e+03 0.0000000000000000e+00  -1.5901590740198678e+03 1.1867349329148192e+03 0.0000000000000000e+00  -1.2087528866558678e+03 1.3852373274008783e+03 0.0000000000000000e+00  -1.6210964579688989e+03 1.2819688434218413e+03 0.0000000000000000e+00  -7.1779461748614176e+02 2.8817321062620167e+03 0.0000000000000000e+00  -2.7753113683531870e+02 1.8761506337561120e+03 0.0000000000000000e+00  -1.0067703575271294e+03 1.8643396565332764e+03 0.0000000000000000e+00  -7.9523118673487920e+02 1.8207212737984646e+03 0.0000000000000000e+00  -1.0388820652611844e+03 1.4972243557906468e+03 0.0000000000000000e+00  -2.0678921054552820e+03 9.4751745940235105e+02 0.0000000000000000e+00  -2.2135473458370157e+03 6.0800816329856798e+02 0.0000000000000000e+00  -2.3722974213653542e+03 1.2835372546878259e+03 0.0000000000000000e+00  -2.1649868637226955e+03 2.8016683372682252e+02 0.0000000000000000e+00  -5.9664749278996408e+02 1.7515625790522558e+03 0.0000000000000000e+00  -2.3667742367570645e+03 1.8576283051239807e+02 0.0000000000000000e+00  -7.2172634012353126e+02 1.6749515093004798e+03 0.0000000000000000e+00  -3.5583692551711056e+03 3.8086291207981049e+02 0.0000000000000000e+00  -1.9583315384227251e+03 1.9457790865256607e+02 0.0000000000000000e+00  -8.6917040834207182e+02 1.5838586838552849e+03 0.0000000000000000e+00  -3.0490941226063283e+03 1.4869289803920124e+03 0.0000000000000000e+00  -5.6271105871242617e+02 2.5104620622539146e+03 0.0000000000000000e+00  -1.1805011800940161e+02 1.9516248347833882e+03 0.0000000000000000e+00  -1.8975199399915759e+03 6.3163734602129489e+02 0.0000000000000000e+00  -1.7920180572973559e+03 6.6463212061758873e+02 0.0000000000000000e+00  -4.0948197872596143e+02 2.1687948323439823e+03 0.0000000000000000e+00  -6.7586715298791796e+02 2.1452149198290040e+03 0.0000000000000000e+00  -1.8415975285977934e+03 7.7011950211806231e+02 0.0000000000000000e+00  -2.8006216561667611e+02 2.3242264602914547e+03 0.0000000000000000e+00  -1.3589879873887810e+03 1.3590276495927651e+03 0.0000000000000000e+00  -1.4788068684320338e+03 1.3248378696898803e+03 0.0000000000000000e+00  -1.8232978948289469e+03 5.0059370472926958e+02 0.0000000000000000e+00  -2.0023946980653504e+03 4.0981455166709975e+02 0.0000000000000000e+00  -1.7254830973020796e+03 5.8008188980092655e+02 0.0000000000000000e+00  -1.2811253769910559e+03 1.6365398143298028e+03 0.0000000000000000e+00  -1.2591402289855648e+03 1.2100938209767357e+03 0.0000000000000000e+00  -1.1957751598547065e+03 1.2178956026367100e+03 0.0000000000000000e+00  -1.7663158031854998e+03 5.3036254510610070e+02 0.0000000000000000e+00  -1.2088631281772812e+03 1.4835893406948501e+03 0.0000000000000000e+00  -1.6827760244310296e+03 4.0603555497950714e+02 0.0000000000000000e+00  -1.6733613103321845e+03 4.6669998882622417e+02 0.0000000000000000e+00  -3.4692916740513556e+02 1.8448774143946405e+03 0.0000000000000000e+00  -1.0866786848984193e+03 1.7126674614356568e+03 0.0000000000000000e+00  -7.1012700828461459e+02 2.2924774854574275e+03 0.0000000000000000e+00  -9.5389660153329169e+02 1.6258785410590751e+03 0.0000000000000000e+00  -3.2865490596729178e+03 7.4433583125493487e+02 0.0000000000000000e+00  -1.9581271135051609e+03 1.8563555054033309e+03 0.0000000000000000e+00  -1.8214308271574344e+03 9.5279368772179760e+02 0.0000000000000000e+00  -9.6099220882398640e+01 2.4877513697640952e+03 0.0000000000000000e+00  -1.7296930749254850e+03 7.2936190459511124e+02 0.0000000000000000e+00  0.0000000000000000e+00 3.6524191542312883e+03 0.0000000000000000e+00  -1.8900219908469498e+03 8.3004148896962533e+01 0.0000000000000000e+00  -1.9841113457593674e+03 -0.0000000000000000e+00 0.0000000000000000e+00  -2.2231391967990476e+03 4.2222405177312567e+01 0.0000000000000000e+00  -2.9502361949043234e+01 1.9585266951620818e+03 0.0000000000000000e+00  -5.8008188980092473e+02 1.6422292849666585e+03 0.0000000000000000e+00  -1.4079954471721810e+03 1.1670786679422972e+03 0.0000000000000000e+00  -1.7183797342589244e+03 8.9704833768355809e+02 0.0000000000000000e+00  -1.6472031307639029e+03 1.0414682648085056e+03 0.0000000000000000e+00  -1.1670786679422945e+03 1.3117254056602110e+03 0.0000000000000000e+00  -4.8843035300901192e+01 2.1371948272231075e+03 0.0000000000000000e+00  -1.7718730259060744e+03 3.2258898041472582e+02 0.0000000000000000e+00  -3.9100903301724338e+02 1.7913984066759213e+03 0.0000000000000000e+00  -4.4416741270435818e+02 1.6679531846416594e+03 0.0000000000000000e+00  -4.7415795641224850e+02 1.6419213873923682e+03 0.0000000000000000e+00  -1.5297731707109042e+03 1.1500252116441577e+03 0.0000000000000000e+00  -1.8653025859068539e+03 2.0151786050307248e+02 0.0000000000000000e+00  -1.6150753078444836e+03 1.3994482533734595e+03 0.0000000000000000e+00  -5.5607735289765196e+02 2.1015762341222285e+03 0.0000000000000000e+00  -4.0061123246219688e+02 1.9065468535986697e+03 0.0000000000000000e+00  -8.4712060104690875e+02 1.6380416107289491e+03 0.0000000000000000e+00  -1.4004166565462422e+03 1.5117242311412140e+03 0.0000000000000000e+00  -1.3926312996384036e+03 2.1363128126438069e+03 0.0000000000000000e+00  -9.4384728079164279e+02 2.1315204730265400e+03 0.0000000000000000e+00  -2.0247996317244870e+03 7.3727562577806714e+02 0.0000000000000000e+00  -3.2022111368349342e+03 2.6144462130298807e+03 0.0000000000000000e+00  -1.7918787181234698e+03 1.0916644176790576e+03 0.0000000000000000e+00  -6.4489840643203752e+02 1.8873844086596023e+03 0.0000000000000000e+00  -7.5615046622712237e+02 1.9532213800104446e+03 0.0000000000000000e+00  -2.1390348235300767e+03 1.5258539495841706e+03 0.0000000000000000e+00  -2.4967896660129645e+02 1.8709793133005162e+03 0.0000000000000000e+00  -2.1619729519344801e+03 1.0587526532816032e+03 0.0000000000000000e+00  -1.4425781834133934e+03 1.2465418770465935e+03 0.0000000000000000e+00  -1.5080384562020211e+03 1.1866589974831725e+03 0.0000000000000000e+00  -1.2624775220440449e+02 1.9827356212200889e+03 0.0000000000000000e+00  -4.4940752537167964e+02 1.8973349584716223e+03 0.0000000000000000e+00  -2.0548508384883921e+03 1.3191853983352624e+02 0.0000000000000000e+00  -5.3999885401235588e+02 1.7154686477402458e+03 0.0000000000000000e+00  -1.9947552155811190e+03 2.2867209989558855e+03 0.0000000000000000e+00  -2.0099911070738510e+03 3.0915622861923703e+02 0.0000000000000000e+00  -9.9429934392558550e+02 1.5457492684481579e+03 0.0000000000000000e+00  -1.6040513802968942e+03 1.2142230941134412e+03 0.0000000000000000e+00  -1.8917884782672361e+03 9.1051718371607660e+02 0.0000000000000000e+00  -3.6764464371425584e+02 1.8187516389850623e+03 0.0000000000000000e+00  -1.6661745602668254e+03 1.1577646246848994e+03 0.0000000000000000e+00  -5.4212043416145173e+02 1.9801603338296341e+03 0.0000000000000000e+00  -7.2876275417805346e+02 2.6708364677635018e+03 0.0000000000000000e+00  -1.1013418961349412e+03 1.4892230285839350e+03 0.0000000000000000e+00  -1.1037900200224517e+03 1.8148626901260188e+03 0.0000000000000000e+00  -4.7757768180746734e+02 1.8042371093260656e+03 0.0000000000000000e+00  -1.9542328336268374e+03 1.2753531029390806e+03 0.0000000000000000e+00  -1.8625084021251164e+03 4.2102402673033919e+02 0.0000000000000000e+00  -3.4241189420937940e+02 2.0519981936051313e+03 0.0000000000000000e+00  -1.6443922735380113e+02 2.2851321951592354e+03 0.0000000000000000e+00  -1.7574265896058955e+03 3.5979005584652236e+02 0.0000000000000000e+00  -1.8371660289805927e+03 2.9272712153792213e+02 0.0000000000000000e+00  -1.9436021166868566e+03 1.0471090609522521e+03 0.0000000000000000e+00  -2.0373009811653988e+03 5.1313282868818567e+02 0.0000000000000000e+00  -2.2075745501522706e+03 4.1465354221640973e+02 0.0000000000000000e+00  -2.4264852206974371e+02 2.0230460483376362e+03 0.0000000000000000e+00  -2.5563189562267139e+03 2.8966392136003105e+02 0.0000000000000000e+00  -1.3704306776813605e+03 1.2457654845233819e+03 0.0000000000000000e+00  -1.3178980881735222e+03 1.2215526537663159e+03 0.0000000000000000e+00  -1.6417038885928582e+02 1.9017601766939229e+03 0.0000000000000000e+00  -1.6901269757289931e+03 3.2346608202115576e+03 0.0000000000000000e+00  -1.2191209436646664e+03 1.5983760751306611e+03 0.0000000000000000e+00  -1.8862405153956506e+03 5.0336688334661744e+02 0.0000000000000000e+00  -1.7922825517814961e+03 5.9430472641536801e+02 0.0000000000000000e+00  -1.8733724908472291e+03 6.3164934243842617e+02 0.0000000000000000e+00  -1.2993585575308625e+03 1.2877239387707173e+03 0.0000000000000000e+00  -1.9468582766485772e+03 1.4208183891709682e+03 0.0000000000000000e+00  -1.1205051984950426e+03 1.4459764068673298e+03 0.0000000000000000e+00  -1.2195822873377167e+03 1.2463655505705183e+03 0.0000000000000000e+00  -1.2516074075478341e+03 1.2900960466080446e+03 0.0000000000000000e+00  -2.0764951975526942e+03 6.4341521342747342e+02 0.0000000000000000e+00  -1.8564955289727302e+03 1.4460433062267953e+03 0.0000000000000000e+00  -1.7226913675792925e+03 1.3008237829520899e+03 0.0000000000000000e+00  -1.3770158355901310e+03 2.1259707823454846e+03 0.0000000000000000e+00  -2.1018554615822140e+03 2.8572799610690777e+02 0.0000000000000000e+00  -1.7390640080566295e+03 3.8943477921850490e+02 0.0000000000000000e+00  -1.7385594111650444e+03 5.0632111051304838e+02 0.0000000000000000e+00  -1.7959811628472060e+03 4.5053990690432875e+02 0.0000000000000000e+00  -1.2867420695758206e+03 1.2006222005226527e+03 0.0000000000000000e+00  -1.6821098409989875e+03 4.6762688411783131e+02 0.0000000000000000e+00  -4.7086959693515053e+02 1.7501985280583792e+03 0.0000000000000000e+00  -1.3606735339261527e+03 1.6857485102066039e+03 0.0000000000000000e+00  -1.5790833370848113e+03 1.6470308004210426e+03 0.0000000000000000e+00  -1.5113851040850177e+03 1.7625099871037273e+03 0.0000000000000000e+00  -5.6563542254320487e+02 2.1566076198009764e+03 0.0000000000000000e+00  -2.0761954649080667e+03 5.7400230161719014e+02 0.0000000000000000e+00  -9.4938241096457546e+02 2.0341200519654867e+03 0.0000000000000000e+00  -1.9252555333163823e+03 8.1506773810323159e+02 0.0000000000000000e+00  -1.6800227127970788e+03 1.4508056199077296e+03 0.0000000000000000e+00  -1.1805746461947065e+03 1.3281783975392116e+03 0.0000000000000000e+00  -1.3682061343736698e+03 1.4415840401876812e+03 0.0000000000000000e+00  -1.4391779526594894e+03 1.3288604130265512e+03 0.0000000000000000e+00  -1.4926311697264193e+03 1.4649301146887055e+03 0.0000000000000000e+00  -2.2831488583409673e+03 8.9082706804167401e+02 0.0000000000000000e+00  -1.9293293608686315e+03 3.6741762416598533e+02 0.0000000000000000e+00  -1.8548912548560406e+03 2.5577645113010885e+02 0.0000000000000000e+00  -1.7636135185525725e+03 1.6957688779039845e+03 0.0000000000000000e+00  -1.3118269039139955e+03 1.3665795299864105e+03 0.0000000000000000e+00  -6.6445440024586526e+02 1.7418156825789833e+03 0.0000000000000000e+00  -8.4693749042704576e+02 2.1908358848795378e+03 0.0000000000000000e+00  -2.3192395160631067e+03 6.0320073601059073e+02 0.0000000000000000e+00  -2.0207995452346272e+03 1.6373631738317931e+02 0.0000000000000000e+00  -1.1142744839097390e+03 1.5549088952172319e+03 0.0000000000000000e+00  -1.8862477519956437e+03 1.0522901340817780e+03 0.0000000000000000e+00  -6.3805152110419476e+02 1.6739390924218833e+03 0.0000000000000000e+00  -9.5629973006044816e+02 1.6685304820512565e+03 0.0000000000000000e+00  -1.1147884163544086e+03 1.7217454857262944e+03 0.0000000000000000e+00  -4.4637588174610715e+02 1.7496252601923693e+03 0.0000000000000000e+00  -2.0308551342976143e+03 2.7316213834576274e+01 0.0000000000000000e+00  -5.2507880235481969e+02 1.6782223519490008e+03 0.0000000000000000e+00  -1.9636204062025151e+03 1.4257052089449445e+02 0.0000000000000000e+00  -1.6308124703981159e+03 1.0467883756819608e+03 0.0000000000000000e+00  -1.6623119959781277e+03 1.0139525775672514e+03 0.0000000000000000e+00  -3.1778237718703542e+02 1.9493436589948844e+03 0.0000000000000000e+00  -7.5464184562719265e+02 1.6184660142326411e+03 0.0000000000000000e+00  -1.1858077866933054e+03 1.3977578633095688e+03 0.0000000000000000e+00  -2.1266867489909205e+03 9.7743485593708726e+02 0.0000000000000000e+00  -2.8769379702009492e+03 4.4319396284424238e+02 0.0000000000000000e+00  -2.6297844822841093e+03 8.1480186433093286e+02 0.0000000000000000e+00  -2.5413911841223808e+03 4.2651889000253965e+02 0.0000000000000000e+00  -3.8134595606093035e+03 5.1307531004610792e+02 0.0000000000000000e+00  -1.4470865696132653e+03 1.2184889177687110e+03 0.0000000000000000e+00  -1.4288425379844741e+03 1.1623766518871787e+03 0.0000000000000000e+00  -5.5682461413254907e+02 1.7496902422772041e+03 0.0000000000000000e+00  -2.1173218576418367e+03 2.3328803994694488e+02 0.0000000000000000e+00  -5.4317407137943667e+02 1.6463548579528829e+03 0.0000000000000000e+00  -2.1345861590296404e+03 9.7908849203630552e+01 0.0000000000000000e+00  -2.2987507376554286e+03 1.3312951089946296e+02 0.0000000000000000e+00  -1.7095372727570823e+03 8.9760037338370080e+02 0.0000000000000000e+00  -1.7543225728620955e+03 8.4064615506071732e+02 0.0000000000000000e+00  -2.4560786120840112e+03 9.1956054559176778e+02 0.0000000000000000e+00  -1.7723185815649256e+03 7.6021824014183335e+02 0.0000000000000000e+00  -6.8456476