<?xml version="1.0"?>
<VTKFile type="UnstructuredGrid"  version="0.1"  >
<UnstructuredGrid>
<Piece  NumberOfPoints="1066" NumberOfCells="2002">
<Points>
<DataArray  type="Float64"  NumberOfComponents="3"  format="ascii">-1 1 0  -1 -1 0  0 -1 0  0 0 0  1 0 0  1 1 0  -1 0 0  0 1 0  0 -0.5 0  -1 -0.5 0  -0.5 -1 0  -0.5 1 0  -1 0.5 0  1 0.5 0  0.5 1 0  0.5 0 0  -0.4166666666666667 0.4166666666666667 0  -0.5 -0.25 0  0.25 0.5 0  -0.625 -0.625 0  0.625 0.375 0  -0.1053921568627451 0.6348039215686274 0  -0.7380952380952381 0.25 0  -0.28125 -0.71875 0  -0.6770833333333334 0.6770833333333334 0  0.71875 0.71875 0  -0.447017916077322 0.08191890617633191 0  -0.1085353122730575 0.3081313543936093 0  -0.3875187227668845 0.7062312772331155 0  -0.75 -0.375 0  0.1454422194409678 0.7602211097204838 0  0.375 0.25 0  -0.2785326086956522 -0.4320652173913043 0  0.4320652173913043 0.7214673913043479 0  -0.7105977894832036 -0.04619557896640717 0  -0.2528701482407906 -0.1192597035184189 0  1 0.25 0  0.75 0 0  -0.75 -1 0  -1 -0.75 0  0.25 1 0  -1 -0.25 0  -0.75 1 0  0 -0.75 0  -0.25 -1 0  -1 0.25 0  -1 0.75 0  1 0.75 0  0.75 1 0  0.25 0 0  -0.25 1 0  0 -0.25 0  0.1340382421326261 0.285769121066313 0  -0.2192518626687895 0.1074543072246201 0  -0.7752976190476191 0.4732142857142857 0  0.03777648397223582 0.4763750798483721 0  0.4620753803475469 0.5112261410426409 0  -0.4264368775807627 -0.5740185511294631 0  -0.625 -0.8333333333333334 0  0.625 0.1666666666666667 0  0.798611111111111 0.2708333333333333 0  -0.8125 -0.5625 0  0.7864583333333334 0.515625 0  -0.212785768461136 0.8035073855376288 0  -0.8184523809523809 -0.8184523809523809 0  -0.2772504674066899 0.5488821937416017 0  -0.5638248415463649 -0.4348503169072702 0  -0.5203927892873141 0.5733572107126859 0  -0.625 0.8585349462365592 0  -0.8158532234335381 0.8158532234335381 0  -0.3496324880537026 0.2418389046065486 0  -0.543404045977127 0.26780644241167 0  -0.4375 -0.8229166666666667 0  -0.8690476190476191 0.125 0  -0.0314294275080956 0.8004214332389695 0  -0.8711516477451908 0.625 0  0.625 0.8715277777777778 0  -0.1284722222222222 -0.625 0  -0.627215057214452 0.11091945258738 0  -0.871564947458939 -0.125 0  -0.153125 -0.846875 0  0.846875 0.846875 0  1 0.125 0  -0.4256050005729202 -0.09168714807690875 0  0 -0.375 0  -0.1772529295205136 -0.2829187418269885 0  0.375 1 0  0.3014669189857678 0.8348712448174203 0  -0.6724871776117968 -0.2175256447764064 0  0.6234436084822068 0.5741339806051801 0  0.001386496772729895 0.1736691377962176 0  -0.131255659811195 0.4717013683396717 0  -0.3377403823054406 -0.257771902905202 0  -0.375 1 0  0.8681175595238095 0.6556919642857143 0  -0.2608422461317439 0.3761490645263582 0  -0.8690476190476191 0.3428819444444444 0  -0.4664744117609373 0.8444182597573975 0  -0.6517427775424292 0.3790994180286428 0  0.1540976495220332 0.1274964721183419 0  1 0.375 0  0.1310704661591709 0.6033300858541432 0  0.283178673724156 0.6582945992483733 0  -0.125 1 0  -0.5739701956109063 -0.1057078650595667 0  -0.4248811351503765 -0.3793807610172282 0  -0.3213255454167493 0.006740753593078519 0  -0.2639643719806763 -0.575558574879227 0  0.575558574879227 0.7360356280193237 0  -0.1430404589371981 -0.4815066425120773 0  0.4432790807885255 0.8662833366051317 0  0 -0.125 0  -0.297265625 -0.862890625 0  0.125 1 0  -0.145436282391303 -0.01934098460236217 0  0.2950672829310669 0.1337163585344665 0  0.8448748043818466 0.1227503912363067 0  -0.6874719167180324 -0.4999859583590162 0  -0.875 -0.4375 0  0.5208333333333334 0.2708333333333333 0  0.3616507606950939 0.399575380347547 0  -0.8543401807245865 -0.2711803614491731 0  0.4344878450763502 0.1234939225381751 0  -0.5375434859082332 0.717661896853494 0  -0.6450174292283248 0.5160879008421021 0  -0.7514880952380952 -0.6919642857142857 0  -0.5010996434171471 -0.6953948376232622 0  -1 -0.625 0  -0.2582128456264357 0.6795353630619356 0  -1 0.875 0  -0.875 1 0  -0.8835632306814941 -0.6875 0  -0.3394026512179202 0.8253731729597156 0  -0.875 -1 0  -1 -0.875 0  0.8880843495934959 0.4375 0  0.0367223624388119 0.6910764569410784 0  0.2615514391055298 0.3152583753235904 0  0.0625 0.8878935439095378 0  -0.1273070754986592 -0.160543044961911 0  -0.2189625940478212 0.2381752314270573 0  -0.8328024549176731 -0.0003776378104099476 0  0.375 0 0  -1 -0.375 0  0.125 0 0  -0.125 -1 0  0 -0.875 0  0 -0.625 0  0.875 0 0  0.625 1 0  -1 0.625 0  -1 -0.125 0  -1 0.125 0  -0.625 1 0  0.625 0 0  -0.625 -1 0  1 0.625 0  1 0.875 0  0.875 1 0  -1 0.375 0  -0.375 -1 0  -0.5413088712465005 0.4423370764309834 0  0.5021815938691322 0.3936517394642011 0  0.7528097587719298 0.3912570053606238 0  0.1854458991294115 0.8769873105267281 0  -0.3966687333356567 0.582507221281458 0  0.017312859432945 0.3464298072114061 0  0.1520915304933911 0.4144971012335941 0  -0.6341754397403996 -0.3341976959224977 0  -0.08564362394966704 0.08752384389757339 0  -0.7475024375077767 0.1287610569809362 0  0.5105109962466823 0.6254023899579764 0  0.3531050849263975 0.561013530116843 0  -0.3364368707563432 0.1241390232369397 0  0.9046934865900382 0.3125 0  -0.5078195952665543 -0.01370407657217318 0  -0.7578418819188018 0.59039693199147 0  -0.8911029511385831 0.457630732644321 0  0.728877013625975 0.1143660935528146 0  0.6807621627851316 0.47748587209555 0  -0.1673611111111111 -0.7329861111111111 0  0.7329861111111111 0.8326388888888889 0  -0.1075969041262288 0.1967372783773208 0  -0.3926465260387641 -0.7209260442751872 0  -0.06250000000000001 0.9075784153978477 0  -0.7608913483634644 0.3639675816471853 0  -0.7608815687160509 -0.1472843785633988 0  0.8994762243227933 0.548552037332427 0  -0.8479014475108225 0.2339409722222222 0  0.5666936618330399 0.4812852614633681 0  0.2209078121141329 0.2138900331412769 0  -0.1875 0.9100666767511092 0  -0.002890634579267901 0.5835286923450195 0  0.7657126143029676 0.6215569825454337 0  -0.5271579041393868 0.1582976030506575 0  -0.6508228291316527 -0.7291666666666667 0  0.625 0.2708333333333334 0  0.5398946345267419 0.1002873574382769 0  -0.6875 -0.9166666666666667 0  -0.5625 -0.9166666666666667 0  -0.6145726437401711 0.003526382672517162 0  -0.5390077243011293 -0.5477500163793804 0  -0.3773968515790759 -0.4770854161148048 0  0.7142645529438691 0.2146516710194772 0  -0.1119803166248119 -0.3739146499867094 0  -0.7868135738762577 0.6983486905292563 0  -0.8907853456887617 0.7349941230586937 0  0.9215147221778196 0.1875 0  0.05832848383709738 0.08637443493900702 0  -0.1647053721348516 0.7155803476090714 0  -0.7202042748917749 -0.5981128246753247 0  -0.90625 -0.53125 0  -0.78125 -0.46875 0  -0.714335168721991 0.7786013880448804 0  -0.429300315487313 0.1807416161735349 0  -0.3125 0.9217988672541995 0  -0.8125 0.9185024305424627 0  -0.7223065571427687 0.877398420931443 0  -0.5183029131888395 -0.3471242289211771 0  -0.4429978111934294 0.281092557636982 0  -0.6426408986478672 0.2795817484386994 0  -0.06691237974321128 0.3972758679150619 0  -0.3385235211323684 -0.6391970703876763 0  -0.8125 -0.9198868071818891 0  -0.9081573884446261 -0.7813915416098677 0  -0.7198547149502305 -0.8015636753053776 0  -0.9127280764323391 0.8304777962191686 0  -0.9090218332864629 -0.9090218332864629 0  0.818656994047619 0.746968005952381 0  -0.1766519737301065 0.5625018446840587 0  -0.3228951133780443 0.457400441805223 0  -0.2271959323756581 0.4661662778633191 0  0.4291172771148606 0.3302132192672673 0  -0.474799927732057 -0.4744586951550465 0  0.1546558946393902 0.5103691032214466 0  -0.7543596458728958 -0.2750400190386132 0  -0.4930629171941668 0.3611602470002761 0  -0.5625 0.9292674731182796 0  -0.4670321895988673 0.6528706775446687 0  -0.6111089467385603 0.6065325902789365 0  -0.4531512730939857 0.5051921796647932 0  -0.4159472675818778 -0.1928619696890267 0  -0.5333081138977825 -0.7910789498399147 0  -0.4375 -0.9224877450980392 0  -0.353233559236062 0.3407234792992738 0  -0.6205731793177731 0.7636993854042075 0  0.4976718605548645 0.7892292694459953 0  0.2686286416509047 0.4084328492470218 0  -0.3328385170002774 -0.3533098842846522 0  -0.2314236111111111 -0.798828125 0  -0.1263842282296248 0.8392846221436558 0  -0.6979926705334714 0.04814677181996406 0  0.5340323036859247 0.8726213302492312 0  0.06053309269828401 0.7958378794235653 0  -0.05331367300548859 0.7108704909726752 0  0.9095177520032207 0.7371646974898138 0  -0.06766581632653063 -0.8125 0  0.8125 0.9323341836734694 0  -0.2187890625 -0.9125390625000001 0  -0.9345238095238095 0.1875 0  -0.9345238095238095 0.0625 0  0.7134051364476723 0.3073482758635454 0  0.3125 0.9288949261476287 0  -0.4042724123663804 0.9125286410300845 0  -0.4949999542369525 -0.1493596599511396 0  -0.09239407266665742 -0.2461724613407035 0  -0.2093366127645507 -0.1984440709306872 0  -0.2059360412155581 -0.3724019555122094 0  -0.0804091139840676 -0.0827568723285774 0  -0.8427981025467879 0.5367463229836719 0  -0.9355758238725954 0.5625 0  0.6540089330334833 0.7841756205230718 0  -0.2158243794769282 -0.6540089330334833 0  0.7035166556728232 0.9201801158018177 0  -0.0642361111111111 -0.6875 0  -0.07885380226553393 -0.5474762618690654 0  -0.9357824737294695 -0.06250000000000001 0  -0.9357824737294695 -0.1875 0  -0.3439411677432879 -0.13494020852379 0  -0.9347182854684236 -0.3125 0  0.4170932698807319 0.6291798952220281 0  -0.6777923487058936 0.1843365303261547 0  -0.2367314998430761 -0.02889569893956546 0  0.2455186592956644 0.7514304800722968 0  0.338536877499326 0.7348609577948819 0  0.1885710820068421 0.6771665959432455 0  -0.9213577773344295 0.9213577773344295 0  0.9137392241379311 0.9137392241379311 0  0.9231189055495981 0.07688109445040187 0  -0.08626077586206894 -0.9137392241379311 0  -0.6639647901052842 -0.1257262374630617 0  -0.5902710222284796 -0.2551544903458088 0  -0.4117988467768269 -0.001860686761120153 0  -0.6503932413280177 -0.4204449326742939 0  -0.5437148183576677 0.8044235003728686 0  -0.03875102938182723 0.2530182418237549 0  0.05153520609246165 0.2488621202873337 0  0.6804294394047085 0.6402914975389431 0  -0.5461550659065946 0.06907378263691563 
[...]
<PointData  Vectors="f_563"> 
<DataArray  type="Float64"  Name="f_563"  NumberOfComponents="3" format="ascii">-1.1968996079439166e+03 1.1968996079439185e+03 0.0000000000000000e+00  -1.6460215221962333e+03 4.3741950083907000e+02 0.0000000000000000e+00  -1.9278711267313788e+03 0.0000000000000000e+00 0.0000000000000000e+00  0.0000000000000000e+00 5.2001957153594767e+03 0.0000000000000000e+00  0.0000000000000000e+00 1.8997588524071671e+03 0.0000000000000000e+00  -4.4912191425231583e+02 1.6460215221962346e+03 0.0000000000000000e+00  -1.6947065495755448e+03 9.3274647170067419e+02 0.0000000000000000e+00  -9.6701238070649299e+02 1.5369761408289219e+03 0.0000000000000000e+00  -2.3752821244787374e+03 -0.0000000000000000e+00 0.0000000000000000e+00  -1.7399775147471059e+03 6.4361370007441985e+02 0.0000000000000000e+00  -1.8187088453929862e+03 2.5310100114731631e+02 0.0000000000000000e+00  -1.1540039878581599e+03 1.3613695821258766e+03 0.0000000000000000e+00  -1.4638743043644306e+03 1.1636347940875751e+03 0.0000000000000000e+00  -3.5070635407300438e+02 1.7989507677973709e+03 0.0000000000000000e+00  -6.4361370007441792e+02 1.6338933103408733e+03 0.0000000000000000e+00  -8.2808301526858941e+01 2.2789215002887113e+03 0.0000000000000000e+00  -1.6227542455411267e+03 1.4735439139418345e+03 0.0000000000000000e+00  -2.1161574634034000e+03 7.4709802337963242e+02 0.0000000000000000e+00  -8.3541178529765534e+02 2.0466963258613032e+03 0.0000000000000000e+00  -1.9096759413869313e+03 5.0849267406939384e+02 0.0000000000000000e+00  -4.3019968765839224e+02 2.0222973579446543e+03 0.0000000000000000e+00  -1.2759949412030755e+03 1.7628102151228525e+03 0.0000000000000000e+00  -1.7070199024187036e+03 1.1817151270351321e+03 0.0000000000000000e+00  -2.0715751951427878e+03 2.4379224520328466e+02 0.0000000000000000e+00  -1.4038140172906728e+03 1.3034841735863042e+03 0.0000000000000000e+00  -5.4382376419273805e+02 1.7459619416981168e+03 0.0000000000000000e+00  -2.1023049856643897e+03 1.2842927441646743e+03 0.0000000000000000e+00  -1.6533487022122974e+03 2.1602915448656204e+03 0.0000000000000000e+00  -1.3227554688845262e+03 1.4638194913231125e+03 0.0000000000000000e+00  -1.8840268599989631e+03 7.0116969723982402e+02 0.0000000000000000e+00  -9.7656750586304918e+02 1.7513048132782592e+03 0.0000000000000000e+00  -4.9233393038082068e+02 2.2851715478437573e+03 0.0000000000000000e+00  -2.3170408718977096e+03 4.5778432761667568e+02 0.0000000000000000e+00  -6.9755376365333973e+02 1.8043384888140922e+03 0.0000000000000000e+00  -1.9228534755946844e+03 9.6350354544685297e+02 0.0000000000000000e+00  -2.7021996184803602e+03 9.3593986163808904e+02 0.0000000000000000e+00  -2.1482798716942580e+02 1.8683840435044162e+03 0.0000000000000000e+00  -5.2788307128122824e+01 2.0233872575544685e+03 0.0000000000000000e+00  -1.7473959627792790e+03 3.6986262494771165e+02 0.0000000000000000e+00  -1.7008271072949137e+03 5.1952375305770170e+02 0.0000000000000000e+00  -8.2317153526953541e+02 1.5996508032469710e+03 0.0000000000000000e+00  -1.7235772622529969e+03 8.0645393670805765e+02 0.0000000000000000e+00  -1.1894889416434273e+03 1.2508687621374606e+03 0.0000000000000000e+00  -2.0606549133574003e+03 -0.0000000000000000e+00 0.0000000000000000e+00  -1.9050726730242859e+03 1.4048347951934920e+02 0.0000000000000000e+00  -1.5849023920820900e+03 1.0777643045485961e+03 0.0000000000000000e+00  -1.3375960573840061e+03 1.1839513411315186e+03 0.0000000000000000e+00  -4.2356083936792129e+02 1.7124035803992656e+03 0.0000000000000000e+00  -5.5068595700794026e+02 1.6391563881246398e+03 0.0000000000000000e+00  -1.6037738419033485e+02 2.8435539774046592e+03 0.0000000000000000e+00  -1.0771658459561811e+03 1.4569452863407607e+03 0.0000000000000000e+00  -2.9644955281081920e+03 1.4766247232293767e+02 0.0000000000000000e+00  -1.0868143003303337e+03 2.5293106993660199e+03 0.0000000000000000e+00  -2.3592604345538648e+03 1.7848241172074281e+03 0.0000000000000000e+00  -1.5249474802101079e+03 1.2615804270905405e+03 0.0000000000000000e+00  -1.2046588020578197e+03 1.9568493067641039e+03 0.0000000000000000e+00  -6.3826530391606070e+02 1.9877241226419314e+03 0.0000000000000000e+00  -2.0709704093708992e+03 4.1893636673983758e+02 0.0000000000000000e+00  -1.8301546319390409e+03 3.7038054283002282e+02 0.0000000000000000e+00  -2.7096272356538384e+02 2.0901424032343461e+03 0.0000000000000000e+00  -2.7089446184726671e+02 1.9478109758722974e+03 0.0000000000000000e+00  -1.8103178952266130e+03 5.9707650253649012e+02 0.0000000000000000e+00  -3.9945917915045061e+02 1.8607594644120900e+03 0.0000000000000000e+00  -1.1938642344715759e+03 1.5610990008657554e+03 0.0000000000000000e+00  -1.7652477732605457e+03 4.3817476055519165e+02 0.0000000000000000e+00  -1.4685133587518249e+03 1.6524576489352098e+03 0.0000000000000000e+00  -2.0852622937952137e+03 6.3232613651920781e+02 0.0000000000000000e+00  -1.4466347847304378e+03 1.4196814888454992e+03 0.0000000000000000e+00  -1.2842529317821425e+03 1.3212866450133572e+03 0.0000000000000000e+00  -1.2960739117838252e+03 1.2277351941350710e+03 0.0000000000000000e+00  -1.8699981788939526e+03 1.6100855600678833e+03 0.0000000000000000e+00  -1.7692680742160403e+03 1.3008567818806107e+03 0.0000000000000000e+00  -1.8914209760334329e+03 2.7906025079972676e+02 0.0000000000000000e+00  -1.6899456989897556e+03 1.0347191626144338e+03 0.0000000000000000e+00  -1.0746022839346967e+03 1.6566503461210093e+03 0.0000000000000000e+00  -1.4350537550690979e+03 1.2114941245818941e+03 0.0000000000000000e+00  -6.0235400821387316e+02 1.6745218196039136e+03 0.0000000000000000e+00  -2.1701785164410417e+03 1.2926726741011771e+02 0.0000000000000000e+00  -1.8440942170461781e+03 1.1195833584259549e+03 0.0000000000000000e+00  -1.7587271658636282e+03 9.1395987106662210e+02 0.0000000000000000e+00  -1.9953912112196131e+03 1.2851089231083824e+02 0.0000000000000000e+00  -4.7196639800906121e+02 1.6777900838504574e+03 0.0000000000000000e+00  -9.1950899038849343e+01 1.8964806832583402e+03 0.0000000000000000e+00  -2.3002260825128133e+03 1.0790305944450083e+03 0.0000000000000000e+00  -2.5862110454143217e+03 1.0060728280889407e+02 0.0000000000000000e+00  -2.7228805606847704e+03 4.9527211744861847e+02 0.0000000000000000e+00  -7.1277137635821487e+02 1.6289271172487290e+03 0.0000000000000000e+00  -8.3520472772957135e+02 1.7233824980125539e+03 0.0000000000000000e+00  -1.9885629362658190e+03 7.9734307522806341e+02 0.0000000000000000e+00  -5.6446764179089996e+02 1.8478749755262172e+03 0.0000000000000000e+00  -1.7387532817309559e+03 2.7381332983374596e+03 0.0000000000000000e+00  -1.3878470858181422e+03 1.8849052078660829e+03 0.0000000000000000e+00  -2.3472210919100808e+03 7.8088708601122789e+02 0.0000000000000000e+00  -1.1354119483560969e+03 1.3965737440698651e+03 0.0000000000000000e+00  -4.2368509394722372e+02 1.7579541434855298e+03 0.0000000000000000e+00  -1.6363540141178592e+03 1.7992997676859377e+03 0.0000000000000000e+00  -1.5901590740192235e+03 1.1867349329148865e+03 0.0000000000000000e+00  -1.2087528866544410e+03 1.3852373273996293e+03 0.0000000000000000e+00  -1.6210964579688737e+03 1.2819688434215454e+03 0.0000000000000000e+00  -7.1779461748612721e+02 2.8817321062621804e+03 0.0000000000000000e+00  -2.7753113683605920e+02 1.8761506337570540e+03 0.0000000000000000e+00  -1.0067703575275527e+03 1.8643396565329942e+03 0.0000000000000000e+00  -7.9523118673502370e+02 1.8207212737981067e+03 0.0000000000000000e+00  -1.0388820652592690e+03 1.4972243557916067e+03 0.0000000000000000e+00  -2.0678921054560160e+03 9.4751745940260639e+02 0.0000000000000000e+00  -2.2135473458377087e+03 6.0800816329878774e+02 0.0000000000000000e+00  -2.3722974213655161e+03 1.2835372546879416e+03 0.0000000000000000e+00  -2.1649868637229742e+03 2.8016683372681973e+02 0.0000000000000000e+00  -5.9664749279019270e+02 1.7515625790516465e+03 0.0000000000000000e+00  -2.3667742367575916e+03 1.8576283051183543e+02 0.0000000000000000e+00  -7.2172634012399203e+02 1.6749515092987058e+03 0.0000000000000000e+00  -3.5583692551760605e+03 3.8086291209288493e+02 0.0000000000000000e+00  -1.9583315384226901e+03 1.9457790865343509e+02 0.0000000000000000e+00  -8.6917040836599017e+02 1.5838586838611780e+03 0.0000000000000000e+00  -3.0490941226053665e+03 1.4869289803919955e+03 0.0000000000000000e+00  -5.6271105871173449e+02 2.5104620622533703e+03 0.0000000000000000e+00  -1.1805011800821396e+02 1.9516248347838739e+03 0.0000000000000000e+00  -1.8975199399915400e+03 6.3163734602162776e+02 0.0000000000000000e+00  -1.7920180572955419e+03 6.6463212061792797e+02 0.0000000000000000e+00  -4.0948197872626383e+02 2.1687948323440824e+03 0.0000000000000000e+00  -6.7586715298800459e+02 2.1452149198288644e+03 0.0000000000000000e+00  -1.8415975285976870e+03 7.7011950211935368e+02 0.0000000000000000e+00  -2.8006216561759788e+02 2.3242264602909786e+03 0.0000000000000000e+00  -1.3589879873886921e+03 1.3590276495922785e+03 0.0000000000000000e+00  -1.4788068684318882e+03 1.3248378696896627e+03 0.0000000000000000e+00  -1.8232978948291122e+03 5.0059370472955220e+02 0.0000000000000000e+00  -2.0023946980653782e+03 4.0981455166734440e+02 0.0000000000000000e+00  -1.7254830972988145e+03 5.8008188980092746e+02 0.0000000000000000e+00  -1.2811253769914920e+03 1.6365398143295474e+03 0.0000000000000000e+00  -1.2591402289841037e+03 1.2100938209792930e+03 0.0000000000000000e+00  -1.1957751598547088e+03 1.2178956026307728e+03 0.0000000000000000e+00  -1.7663158031857374e+03 5.3036254510716708e+02 0.0000000000000000e+00  -1.2088631281774401e+03 1.4835893406944849e+03 0.0000000000000000e+00  -1.6827760244220090e+03 4.0603555497388123e+02 0.0000000000000000e+00  -1.6733613103291261e+03 4.6669998881869901e+02 0.0000000000000000e+00  -3.4692916740453666e+02 1.8448774143951312e+03 0.0000000000000000e+00  -1.0866786848987947e+03 1.7126674614351389e+03 0.0000000000000000e+00  -7.1012700828445850e+02 2.2924774854574530e+03 0.0000000000000000e+00  -9.5389660153364639e+02 1.6258785410576149e+03 0.0000000000000000e+00  -3.2865490596750587e+03 7.4433583125687437e+02 0.0000000000000000e+00  -1.9581271135054244e+03 1.8563555054032474e+03 0.0000000000000000e+00  -1.8214308271581926e+03 9.5279368772129783e+02 0.0000000000000000e+00  -9.6099220884851547e+01 2.4877513697661461e+03 0.0000000000000000e+00  -1.7296930749285657e+03 7.2936190459535237e+02 0.0000000000000000e+00  0.0000000000000000e+00 3.6524191542298831e+03 0.0000000000000000e+00  -1.8900219908469528e+03 8.3004148895258481e+01 0.0000000000000000e+00  -1.9841113457587744e+03 -0.0000000000000000e+00 0.0000000000000000e+00  -2.2231391968023718e+03 4.2222405175233007e+01 0.0000000000000000e+00  -2.9502361950879958e+01 1.9585266951617546e+03 0.0000000000000000e+00  -5.8008188980092541e+02 1.6422292849718401e+03 0.0000000000000000e+00  -1.4079954471828487e+03 1.1670786679422993e+03 0.0000000000000000e+00  -1.7183797342447176e+03 8.9704833768355945e+02 0.0000000000000000e+00  -1.6472031307617694e+03 1.0414682648155599e+03 0.0000000000000000e+00  -1.1670786679422968e+03 1.3117254056587008e+03 0.0000000000000000e+00  -4.8843035308780145e+01 2.1371948272177274e+03 0.0000000000000000e+00  -1.7718730259027786e+03 3.2258898041666674e+02 0.0000000000000000e+00  -3.9100903301879453e+02 1.7913984066816852e+03 0.0000000000000000e+00  -4.4416741270943362e+02 1.6679531846416626e+03 0.0000000000000000e+00  -4.7415795639292401e+02 1.6419213874008410e+03 0.0000000000000000e+00  -1.5297731707103612e+03 1.1500252116460051e+03 0.0000000000000000e+00  -1.8653025859031677e+03 2.0151786050377120e+02 0.0000000000000000e+00  -1.6150753078447142e+03 1.3994482533732958e+03 0.0000000000000000e+00  -5.5607735289764150e+02 2.1015762341222608e+03 0.0000000000000000e+00  -4.0061123246206603e+02 1.9065468535985306e+03 0.0000000000000000e+00  -8.4712060104368925e+02 1.6380416107273566e+03 0.0000000000000000e+00  -1.4004166565462597e+03 1.5117242311408793e+03 0.0000000000000000e+00  -1.3926312996387651e+03 2.1363128126437200e+03 0.0000000000000000e+00  -9.4384728079189165e+02 2.1315204730264413e+03 0.0000000000000000e+00  -2.0247996317248385e+03 7.3727562577847220e+02 0.0000000000000000e+00  -3.2022111368329552e+03 2.6144462130278348e+03 0.0000000000000000e+00  -1.7918787181237556e+03 1.0916644176786187e+03 0.0000000000000000e+00  -6.4489840643217940e+02 1.8873844086594831e+03 0.0000000000000000e+00  -7.5615046622728892e+02 1.9532213800102427e+03 0.0000000000000000e+00  -2.1390348235304032e+03 1.5258539495840362e+03 0.0000000000000000e+00  -2.4967896660208180e+02 1.8709793133014020e+03 0.0000000000000000e+00  -2.1619729519351217e+03 1.0587526532815839e+03 0.0000000000000000e+00  -1.4425781834127556e+03 1.2465418770462879e+03 0.0000000000000000e+00  -1.5080384562016877e+03 1.1866589974811818e+03 0.0000000000000000e+00  -1.2624775220434606e+02 1.9827356212203802e+03 0.0000000000000000e+00  -4.4940752537143680e+02 1.8973349584712782e+03 0.0000000000000000e+00  -2.0548508384878201e+03 1.3191853983347613e+02 0.0000000000000000e+00  -5.3999885401168910e+02 1.7154686477393766e+03 0.0000000000000000e+00  -1.9947552155810240e+03 2.2867209989554867e+03 0.0000000000000000e+00  -2.0099911070738583e+03 3.0915622861943700e+02 0.0000000000000000e+00  -9.9429934392559608e+02 1.5457492684399790e+03 0.0000000000000000e+00  -1.6040513802966752e+03 1.2142230941132736e+03 0.0000000000000000e+00  -1.8917884782681642e+03 9.1051718371650907e+02 0.0000000000000000e+00  -3.6764464371360145e+02 1.8187516389857117e+03 0.0000000000000000e+00  -1.6661745602665058e+03 1.1577646246842605e+03 0.0000000000000000e+00  -5.4212043416158735e+02 1.9801603338294251e+03 0.0000000000000000e+00  -7.2876275417822092e+02 2.6708364677636109e+03 0.0000000000000000e+00  -1.1013418961349776e+03 1.4892230285826208e+03 0.0000000000000000e+00  -1.1037900200227405e+03 1.8148626901259663e+03 0.0000000000000000e+00  -4.7757768180713816e+02 1.8042371093257022e+03 0.0000000000000000e+00  -1.9542328336274904e+03 1.2753531029389289e+03 0.0000000000000000e+00  -1.8625084021248751e+03 4.2102402673062704e+02 0.0000000000000000e+00  -3.4241189420933853e+02 2.0519981936054855e+03 0.0000000000000000e+00  -1.6443922735261998e+02 2.2851321951605041e+03 0.0000000000000000e+00  -1.7574265896021941e+03 3.5979005584481251e+02 0.0000000000000000e+00  -1.8371660289796382e+03 2.9272712154064379e+02 0.0000000000000000e+00  -1.9436021166873563e+03 1.0471090609521027e+03 0.0000000000000000e+00  -2.0373009811656368e+03 5.1313282868840281e+02 0.0000000000000000e+00  -2.2075745501527135e+03 4.1465354221640246e+02 0.0000000000000000e+00  -2.4264852206956385e+02 2.0230460483379240e+03 0.0000000000000000e+00  -2.5563189562273160e+03 2.8966392136121158e+02 0.0000000000000000e+00  -1.3704306776810924e+03 1.2457654845234968e+03 0.0000000000000000e+00  -1.3178980881779607e+03 1.2215526537673150e+03 0.0000000000000000e+00  -1.6417038885759757e+02 1.9017601766935391e+03 0.0000000000000000e+00  -1.6901269757301118e+03 3.2346608202100133e+03 0.0000000000000000e+00  -1.2191209436651995e+03 1.5983760751303814e+03 0.0000000000000000e+00  -1.8862405153956397e+03 5.0336688334684914e+02 0.0000000000000000e+00  -1.7922825517805745e+03 5.9430472641374126e+02 0.0000000000000000e+00  -1.8733724908469624e+03 6.3164934243869538e+02 0.0000000000000000e+00  -1.2993585575307839e+03 1.2877239387705290e+03 0.0000000000000000e+00  -1.9468582766489913e+03 1.4208183891708520e+03 0.0000000000000000e+00  -1.1205051984963986e+03 1.4459764068675931e+03 0.0000000000000000e+00  -1.2195822873356135e+03 1.2463655505683460e+03 0.0000000000000000e+00  -1.2516074075471961e+03 1.2900960466071183e+03 0.0000000000000000e+00  -2.0764951975533850e+03 6.4341521342772285e+02 0.0000000000000000e+00  -1.8564955289731179e+03 1.4460433062266620e+03 0.0000000000000000e+00  -1.7226913675795931e+03 1.3008237829517363e+03 0.0000000000000000e+00  -1.3770158355903238e+03 2.1259707823452850e+03 0.0000000000000000e+00  -2.1018554615825419e+03 2.8572799610710308e+02 0.0000000000000000e+00  -1.7390640080604878e+03 3.8943477921285171e+02 0.0000000000000000e+00  -1.7385594111643281e+03 5.0632111051310903e+02 0.0000000000000000e+00  -1.7959811628471768e+03 4.5053990690500359e+02 0.0000000000000000e+00  -1.2867420695736325e+03 1.2006222005148857e+03 0.0000000000000000e+00  -1.6821098410072723e+03 4.6762688411449108e+02 0.0000000000000000e+00  -4.7086959693541161e+02 1.7501985280581857e+03 0.0000000000000000e+00  -1.3606735339265529e+03 1.6857485102063683e+03 0.0000000000000000e+00  -1.5790833370849950e+03 1.6470308004210824e+03 0.0000000000000000e+00  -1.5113851040856198e+03 1.7625099871035559e+03 0.0000000000000000e+00  -5.6563542254333265e+02 2.1566076198008805e+03 0.0000000000000000e+00  -2.0761954649084300e+03 5.7400230161746254e+02 0.0000000000000000e+00  -9.4938241096499803e+02 2.0341200519654481e+03 0.0000000000000000e+00  -1.9252555333168114e+03 8.1506773810379764e+02 0.0000000000000000e+00  -1.6800227127974695e+03 1.4508056199075893e+03 0.0000000000000000e+00  -1.1805746461928334e+03 1.3281783975406461e+03 0.0000000000000000e+00  -1.3682061343738874e+03 1.4415840401874887e+03 0.0000000000000000e+00  -1.4391779526594335e+03 1.3288604130263639e+03 0.0000000000000000e+00  -1.4926311697266108e+03 1.4649301146885402e+03 0.0000000000000000e+00  -2.2831488583415799e+03 8.9082706804185136e+02 0.0000000000000000e+00  -1.9293293608686574e+03 3.6741762416617513e+02 0.0000000000000000e+00  -1.8548912548558308e+03 2.5577645112543064e+02 0.0000000000000000e+00  -1.7636135185528701e+03 1.6957688779038779e+03 0.0000000000000000e+00  -1.3118269039141055e+03 1.3665795299858373e+03 0.0000000000000000e+00  -6.6445440024628510e+02 1.7418156825781559e+03 0.0000000000000000e+00  -8.4693749042729553e+02 2.1908358848795465e+03 0.0000000000000000e+00  -2.3192395160636247e+03 6.0320073601070180e+02 0.0000000000000000e+00  -2.0207995452336902e+03 1.6373631738347262e+02 0.0000000000000000e+00  -1.1142744839099623e+03 1.5549088952173711e+03 0.0000000000000000e+00  -1.8862477519963174e+03 1.0522901340814835e+03 0.0000000000000000e+00  -6.3805152110479469e+02 1.6739390924190998e+03 0.0000000000000000e+00  -9.5629973006079524e+02 1.6685304820499557e+03 0.0000000000000000e+00  -1.1147884163546094e+03 1.7217454857257462e+03 0.0000000000000000e+00  -4.4637588174699465e+02 1.7496252601925353e+03 0.0000000000000000e+00  -2.0308551343030379e+03 2.7316213838040767e+01 0.0000000000000000e+00  -5.2507880235294806e+02 1.6782223519481911e+03 0.0000000000000000e+00  -1.9636204062020938e+03 1.4257052089663665e+02 0.0000000000000000e+00  -1.6308124704030520e+03 1.0467883756825895e+03 0.0000000000000000e+00  -1.6623119959741093e+03 1.0139525775663212e+03 0.0000000000000000e+00  -3.1778237718704855e+02 1.9493436589949815e+03 0.0000000000000000e+00  -7.5464184563511935e+02 1.6184660142360267e+03 0.0000000000000000e+00  -1.1858077866909985e+03 1.3977578633092699e+03 0.0000000000000000e+00  -2.1266867489914562e+03 9.7743485593723119e+02 0.0000000000000000e+00  -2.8769379702008755e+03 4.4319396284455433e+02 0.0000000000000000e+00  -2.6297844822845582e+03 8.1480186433122708e+02 0.0000000000000000e+00  -2.5413911841228087e+03 4.2651889000279687e+02 0.0000000000000000e+00  -3.8134595606024964e+03 5.1307531005292913e+02 0.0000000000000000e+00  -1.4470865696120745e+03 1.2184889177680318e+03 0.0000000000000000e+00  -1.4288425379873186e+03 1.1623766518847028e+03 0.0000000000000000e+00  -5.5682461413247995e+02 1.7496902422766523e+03 0.0000000000000000e+00  -2.1173218576418631e+03 2.3328803994670920e+02 0.0000000000000000e+00  -5.4317407138268879e+02 1.6463548579564392e+03 0.0000000000000000e+00  -2.1345861590306681e+03 9.7908849204500484e+01 0.0000000000000000e+00  -2.2987507376555986e+03 1.3312951089872104e+02 0.0000000000000000e+00  -1.7095372727492031e+03 8.9760037337734002e+02 0.0000000000000000e+00  -1.7543225728613952e+03 8.4064615506089967e+02 0.0000000000000000e+00  -2.4560786120843591e+03 9.1956054559188010e+02 0.0000000000000000e+00  -1.7723185815640197e+03 7.6021824014360527e+02 0.0000000000000000e+00  -6.8456476