<?xml version="1.0"?>
<VTKFile type="UnstructuredGrid"  version="0.1"  >
<UnstructuredGrid>
<Piece  NumberOfPoints="80" NumberOfCells="126">
<Points>
<DataArray  type="Float64"  NumberOfComponents="3"  format="ascii">-1 -1 0  0 -1 0  0 0 0  1 0 0  1 1 0  -1 1 0  -1 0 0  0 1 0  0 -0.5 0  -1 -0.5 0  -0.5 -1 0  -0.5 1 0  -1 0.5 0  1 0.5 0  0.5 1 0  0.5 0 0  -0.4166666666666667 0.4166666666666667 0  -0.5 -0.25 0  0.25 0.5 0  -0.625 -0.625 0  0.625 0.375 0  -0.1053921568627451 0.6348039215686274 0  -0.7380952380952381 0.25 0  -0.28125 -0.71875 0  -0.6770833333333334 0.6770833333333334 0  0.71875 0.71875 0  -0.447017916077322 0.08191890617633191 0  -0.1085353122730575 0.3081313543936093 0  -0.3875187227668845 0.7062312772331155 0  -0.75 -0.375 0  0.1454422194409678 0.7602211097204838 0  0.375 0.25 0  -0.2785326086956522 -0.4320652173913043 0  0.4320652173913043 0.7214673913043479 0  -0.7105977894832036 -0.04619557896640717 0  -0.2528701482407906 -0.1192597035184189 0  1 0.25 0  0.75 0 0  -0.75 -1 0  -1 -0.75 0  0.25 1 0  -1 -0.25 0  -0.75 1 0  0 -0.75 0  -0.25 -1 0  -1 0.25 0  -1 0.75 0  1 0.75 0  0.75 1 0  0.25 0 0  -0.25 1 0  0 -0.25 0  0.1340382421326261 0.285769121066313 0  -0.2192518626687895 0.1074543072246201 0  -0.7752976190476191 0.4732142857142857 0  0.03777648397223582 0.4763750798483721 0  0.4620753803475469 0.5112261410426409 0  -0.4264368775807627 -0.5740185511294631 0  -0.625 -0.8333333333333334 0  0.625 0.1666666666666667 0  0.798611111111111 0.2708333333333333 0  -0.8125 -0.5625 0  0.7864583333333334 0.515625 0  -0.212785768461136 0.8035073855376288 0  -0.8184523809523809 -0.8184523809523809 0  -0.2772504674066899 0.5488821937416017 0  -0.5638248415463649 -0.4348503169072702 0  -0.5203927892873141 0.5733572107126859 0  -0.625 0.8585349462365592 0  -0.8158532234335381 0.8158532234335381 0  -0.3496324880537026 0.2418389046065486 0  -0.543404045977127 0.26780644241167 0  -0.4375 -0.8229166666666667 0  -0.8690476190476191 0.125 0  -0.0314294275080956 0.8004214332389695 0  -0.8558828801254437 0.6373956124224829 0  0.625 0.8715277777777778 0  -0.1284722222222222 -0.625 0  -0.622930161627525 0.108637913982734 0  -0.871564947458939 -0.125 0  </DataArray>
</Points>
<Cells>
<DataArray  type="UInt32"  Name="connectivity"  format="ascii">23 32 57  10 38 58  19 29 66  32 57 66  19 29 61  17 26 34  8 43 77  16 70 71  24 69 75  25 33 56  20 59 60  13 47 62  25 56 62  18 33 56  7 50 63  18 52 55  16 27 70  26 70 71  2 27 52  18 31 52  9 39 61  21 63 65  16 65 67  24 28 67  2 35 53  28 65 67  2 27 53  26 35 53  11 28 50  6 45 73  14 48 76  15 31 49  17 32 35  17 26 35  7 30 40  18 30 33  9 29 41  17 29 34  2 35 51  3 36 60  3 37 60  37 59 60  15 37 59  39 61 64  38 58 64  9 29 61  30 33 40  14 33 40  29 41 79  6 41 79  24 68 69  11 42 68  23 43 77  1 43 44  23 43 44  10 58 72  22 45 73  46 69 75  24 54 75  42 68 69  25 48 76  25 47 62  25 47 48  4 47 48  2 49 52  31 49 52  21 63 74  7 63 74  32 35 51  8 32 51  21 27 55  27 52 55  27 53 70  26 53 70  12 45 54  22 45 54  18 30 55  21 30 55  18 31 56  20 31 56  19 57 66  23 57 72  19 57 72  19 58 72  20 31 59  15 31 59  13 36 60  20 56 62  19 58 64  19 61 64  20 60 62  13 60 62  28 50 63  28 63 65  0 39 64  0 38 64  16 27 65  21 27 65  17 32 66  17 29 66  24 54 67  16 67 71  24 28 68  11 28 68  5 42 69  5 46 69  22 71 78  26 71 78  54 67 71  22 54 71  10 44 72  23 44 72  29 34 79  22 73 78  21 30 74  7 30 74  12 46 75  12 54 75  14 33 76  25 33 76  8 32 77  23 32 77  34 73 78  26 34 78  34 73 79  6 73 79  </DataArray>
<DataArray  type="UInt32"  Name="offsets"  format="ascii">3 6 9 12 15 18 21 24 27 30 33 36 39 42 45 48 51 54 57 60 63 66 69 72 75 78 81 84 87 90 93 96 99 102 105 108 111 114 117 120 123 126 129 132 135 138 141 144 147 150 153 156 159 162 165 168 171 174 177 180 183 186 189 192 195 198 201 204 207 210 213 216 219 222 225 228 231 234 237 240 243 246 249 252 255 258 261 264 267 270 273 276 279 282 285 288 291 294 297 300 303 306 309 312 315 318 321 324 327 330 333 336 339 342 345 348 351 354 357 360 363 366 369 372 375 378 </DataArray>
<DataArray  type="UInt8"  Name="types"  format="ascii">5 5 5 5 5 5 5 5 5 5 5 5 5 5 5 5 5 5 5 5 5 5 5 5 5 5 5 5 5 5 5 5 5 5 5 5 5 5 5 5 5 5 5 5 5 5 5 5 5 5 5 5 5 5 5 5 5 5 5 5 5 5 5 5 5 5 5 5 5 5 5 5 5 5 5 5 5 5 5 5 5 5 5 5 5 5 5 5 5 5 5 5 5 5 5 5 5 5 5 5 5 5 5 5 5 5 5 5 5 5 5 5 5 5 5 5 5 5 5 5 5 5 5 5 5 5 </DataArray>
</Cells>
<PointData  Scalars="f_48"> 
<DataArray  type="Float64"  Name="f_48"  format="ascii">2.5565718819733041e+00  4.0103717272556381e+00  0.0000000000000000e+00  -4.0103717272555572e+00  -2.5565718819731944e+00  7.2222711289098606e-14  1.5980759117701200e+00  -1.5980759117699606e+00  5.4993161636927468e+00  2.3368381254266213e+00  3.2930108064236991e+00  -6.3343662878520990e-01  6.3343662878536999e-01  -3.2930108064235939e+00  -2.3368381254264854e+00  -5.4993161636926366e+00  1.0761336015498198e-13  3.2044440139433736e+00  -3.2044440139431876e+00  3.1669264688659284e+00  -3.8791818969486287e+00  -1.5567636284813160e+00  1.0607644538332570e+00  4.0332172286228714e+00  8.6261907040036364e-14  -2.9715916300442813e+00  1.7761441253679537e+00  -1.5352446310994774e+00  -6.4862808035111674e-01  2.6640370222564753e+00  -2.2023422839186813e+00  -4.7313758139612991e+00  4.4860803387613162e+00  -2.8028309784211460e+00  2.0120964855998928e+00  4.3215563155924333e+00  -3.6915663459701791e+00  -4.5718950911368692e+00  2.8997587864110828e+00  2.4978089550162603e+00  -2.0358568312046406e+00  2.0358568312047902e+00  -2.6628008852331647e-01  4.5718950911369616e+00  3.6915663459702746e+00  1.0968594628610393e+00  2.6628008852346929e-01  -2.8997587864109731e+00  -2.4978089550161382e+00  -7.5410660968695584e+00  -1.0968594628608765e+00  7.5410660968697094e+00  -4.0829222028913392e+00  1.2978438612012317e+00  5.1458610891664691e-01  -2.4512548720635845e+00  -3.4524569844417177e+00  3.7476456451517497e+00  3.1508680638162425e+00  -4.5417132869181129e+00  -3.9369091180861462e+00  2.7165042755819808e+00  -3.3957230868041108e+00  -1.1793125915039941e+00  2.8008569082742660e+00  -8.2121477949819022e-01  3.2536152498803363e+00  -1.1300723976517041e-01  -3.1554565595055883e-01  7.9238444995294168e-14  5.5266308900198702e-01  8.5224096578432385e-01  3.5425136012323217e+00  1.3971278825782163e+00  -1.6831880323590729e+00  2.9298965385058218e-01  -2.6439639694796178e+00  4.6537752427301280e+00  1.5491898296266349e+00  1.9836312410979720e+00  </DataArray> 
</PointData> 
</Piece>
</UnstructuredGrid>
</VTKFile>