<?xml version="1.0"?>
<VTKFile type="UnstructuredGrid"  version="0.1"  >
<UnstructuredGrid>
<Piece  NumberOfPoints="1066" NumberOfCells="2002">
<Points>
<DataArray  type="Float64"  NumberOfComponents="3"  format="ascii">-1 1 0  -1 -1 0  0 -1 0  0 0 0  1 0 0  1 1 0  -1 0 0  0 1 0  0 -0.5 0  -1 -0.5 0  -0.5 -1 0  -0.5 1 0  -1 0.5 0  1 0.5 0  0.5 1 0  0.5 0 0  -0.4166666666666667 0.4166666666666667 0  -0.5 -0.25 0  0.25 0.5 0  -0.625 -0.625 0  0.625 0.375 0  -0.1053921568627451 0.6348039215686274 0  -0.7380952380952381 0.25 0  -0.28125 -0.71875 0  -0.6770833333333334 0.6770833333333334 0  0.71875 0.71875 0  -0.447017916077322 0.08191890617633191 0  -0.1085353122730575 0.3081313543936093 0  -0.3875187227668845 0.7062312772331155 0  -0.75 -0.375 0  0.1454422194409678 0.7602211097204838 0  0.375 0.25 0  -0.2785326086956522 -0.4320652173913043 0  0.4320652173913043 0.7214673913043479 0  -0.7105977894832036 -0.04619557896640717 0  -0.2528701482407906 -0.1192597035184189 0  1 0.25 0  0.75 0 0  -0.75 -1 0  -1 -0.75 0  0.25 1 0  -1 -0.25 0  -0.75 1 0  0 -0.75 0  -0.25 -1 0  -1 0.25 0  -1 0.75 0  1 0.75 0  0.75 1 0  0.25 0 0  -0.25 1 0  0 -0.25 0  0.1340382421326261 0.285769121066313 0  -0.2192518626687895 0.1074543072246201 0  -0.7752976190476191 0.4732142857142857 0  0.03777648397223582 0.4763750798483721 0  0.4620753803475469 0.5112261410426409 0  -0.4264368775807627 -0.5740185511294631 0  -0.625 -0.8333333333333334 0  0.625 0.1666666666666667 0  0.798611111111111 0.2708333333333333 0  -0.8125 -0.5625 0  0.7864583333333334 0.515625 0  -0.212785768461136 0.8035073855376288 0  -0.8184523809523809 -0.8184523809523809 0  -0.2772504674066899 0.5488821937416017 0  -0.5638248415463649 -0.4348503169072702 0  -0.5203927892873141 0.5733572107126859 0  -0.625 0.8585349462365592 0  -0.8158532234335381 0.8158532234335381 0  -0.3496324880537026 0.2418389046065486 0  -0.543404045977127 0.26780644241167 0  -0.4375 -0.8229166666666667 0  -0.8690476190476191 0.125 0  -0.0314294275080956 0.8004214332389695 0  -0.8711516477451908 0.625 0  0.625 0.8715277777777778 0  -0.1284722222222222 -0.625 0  -0.627215057214452 0.11091945258738 0  -0.871564947458939 -0.125 0  -0.153125 -0.846875 0  0.846875 0.846875 0  1 0.125 0  -0.4256050005729202 -0.09168714807690875 0  0 -0.375 0  -0.1772529295205136 -0.2829187418269885 0  0.375 1 0  0.3014669189857678 0.8348712448174203 0  -0.6724871776117968 -0.2175256447764064 0  0.6234436084822068 0.5741339806051801 0  0.001386496772729895 0.1736691377962176 0  -0.131255659811195 0.4717013683396717 0  -0.3377403823054406 -0.257771902905202 0  -0.375 1 0  0.8681175595238095 0.6556919642857143 0  -0.2608422461317439 0.3761490645263582 0  -0.8690476190476191 0.3428819444444444 0  -0.4664744117609373 0.8444182597573975 0  -0.6517427775424292 0.3790994180286428 0  0.1540976495220332 0.1274964721183419 0  1 0.375 0  0.1310704661591709 0.6033300858541432 0  0.283178673724156 0.6582945992483733 0  -0.125 1 0  -0.5739701956109063 -0.1057078650595667 0  -0.4248811351503765 -0.3793807610172282 0  -0.3213255454167493 0.006740753593078519 0  -0.2639643719806763 -0.575558574879227 0  0.575558574879227 0.7360356280193237 0  -0.1430404589371981 -0.4815066425120773 0  0.4432790807885255 0.8662833366051317 0  0 -0.125 0  -0.297265625 -0.862890625 0  0.125 1 0  -0.145436282391303 -0.01934098460236217 0  0.2950672829310669 0.1337163585344665 0  0.8448748043818466 0.1227503912363067 0  -0.6874719167180324 -0.4999859583590162 0  -0.875 -0.4375 0  0.5208333333333334 0.2708333333333333 0  0.3616507606950939 0.399575380347547 0  -0.8543401807245865 -0.2711803614491731 0  0.4344878450763502 0.1234939225381751 0  -0.5375434859082332 0.717661896853494 0  -0.6450174292283248 0.5160879008421021 0  -0.7514880952380952 -0.6919642857142857 0  -0.5010996434171471 -0.6953948376232622 0  -1 -0.625 0  -0.2582128456264357 0.6795353630619356 0  -1 0.875 0  -0.875 1 0  -0.8835632306814941 -0.6875 0  -0.3394026512179202 0.8253731729597156 0  -0.875 -1 0  -1 -0.875 0  0.8880843495934959 0.4375 0  0.0367223624388119 0.6910764569410784 0  0.2615514391055298 0.3152583753235904 0  0.0625 0.8878935439095378 0  -0.1273070754986592 -0.160543044961911 0  -0.2189625940478212 0.2381752314270573 0  -0.8328024549176731 -0.0003776378104099476 0  0.375 0 0  -1 -0.375 0  0.125 0 0  -0.125 -1 0  0 -0.875 0  0 -0.625 0  0.875 0 0  0.625 1 0  -1 0.625 0  -1 -0.125 0  -1 0.125 0  -0.625 1 0  0.625 0 0  -0.625 -1 0  1 0.625 0  1 0.875 0  0.875 1 0  -1 0.375 0  -0.375 -1 0  -0.5413088712465005 0.4423370764309834 0  0.5021815938691322 0.3936517394642011 0  0.7528097587719298 0.3912570053606238 0  0.1854458991294115 0.8769873105267281 0  -0.3966687333356567 0.582507221281458 0  0.017312859432945 0.3464298072114061 0  0.1520915304933911 0.4144971012335941 0  -0.6341754397403996 -0.3341976959224977 0  -0.08564362394966704 0.08752384389757339 0  -0.7475024375077767 0.1287610569809362 0  0.5105109962466823 0.6254023899579764 0  0.3531050849263975 0.561013530116843 0  -0.3364368707563432 0.1241390232369397 0  0.9046934865900382 0.3125 0  -0.5078195952665543 -0.01370407657217318 0  -0.7578418819188018 0.59039693199147 0  -0.8911029511385831 0.457630732644321 0  0.728877013625975 0.1143660935528146 0  0.6807621627851316 0.47748587209555 0  -0.1673611111111111 -0.7329861111111111 0  0.7329861111111111 0.8326388888888889 0  -0.1075969041262288 0.1967372783773208 0  -0.3926465260387641 -0.7209260442751872 0  -0.06250000000000001 0.9075784153978477 0  -0.7608913483634644 0.3639675816471853 0  -0.7608815687160509 -0.1472843785633988 0  0.8994762243227933 0.548552037332427 0  -0.8479014475108225 0.2339409722222222 0  0.5666936618330399 0.4812852614633681 0  0.2209078121141329 0.2138900331412769 0  -0.1875 0.9100666767511092 0  -0.002890634579267901 0.5835286923450195 0  0.7657126143029676 0.6215569825454337 0  -0.5271579041393868 0.1582976030506575 0  -0.6508228291316527 -0.7291666666666667 0  0.625 0.2708333333333334 0  0.5398946345267419 0.1002873574382769 0  -0.6875 -0.9166666666666667 0  -0.5625 -0.9166666666666667 0  -0.6145726437401711 0.003526382672517162 0  -0.5390077243011293 -0.5477500163793804 0  -0.3773968515790759 -0.4770854161148048 0  0.7142645529438691 0.2146516710194772 0  -0.1119803166248119 -0.3739146499867094 0  -0.7868135738762577 0.6983486905292563 0  -0.8907853456887617 0.7349941230586937 0  0.9215147221778196 0.1875 0  0.05832848383709738 0.08637443493900702 0  -0.1647053721348516 0.7155803476090714 0  -0.7202042748917749 -0.5981128246753247 0  -0.90625 -0.53125 0  -0.78125 -0.46875 0  -0.714335168721991 0.7786013880448804 0  -0.429300315487313 0.1807416161735349 0  -0.3125 0.9217988672541995 0  -0.8125 0.9185024305424627 0  -0.7223065571427687 0.877398420931443 0  -0.5183029131888395 -0.3471242289211771 0  -0.4429978111934294 0.281092557636982 0  -0.6426408986478672 0.2795817484386994 0  -0.06691237974321128 0.3972758679150619 0  -0.3385235211323684 -0.6391970703876763 0  -0.8125 -0.9198868071818891 0  -0.9081573884446261 -0.7813915416098677 0  -0.7198547149502305 -0.8015636753053776 0  -0.9127280764323391 0.8304777962191686 0  -0.9090218332864629 -0.9090218332864629 0  0.818656994047619 0.746968005952381 0  -0.1766519737301065 0.5625018446840587 0  -0.3228951133780443 0.457400441805223 0  -0.2271959323756581 0.4661662778633191 0  0.4291172771148606 0.3302132192672673 0  -0.474799927732057 -0.4744586951550465 0  0.1546558946393902 0.5103691032214466 0  -0.7543596458728958 -0.2750400190386132 0  -0.4930629171941668 0.3611602470002761 0  -0.5625 0.9292674731182796 0  -0.4670321895988673 0.6528706775446687 0  -0.6111089467385603 0.6065325902789365 0  -0.4531512730939857 0.5051921796647932 0  -0.4159472675818778 -0.1928619696890267 0  -0.5333081138977825 -0.7910789498399147 0  -0.4375 -0.9224877450980392 0  -0.353233559236062 0.3407234792992738 0  -0.6205731793177731 0.7636993854042075 0  0.4976718605548645 0.7892292694459953 0  0.2686286416509047 0.4084328492470218 0  -0.3328385170002774 -0.3533098842846522 0  -0.2314236111111111 -0.798828125 0  -0.1263842282296248 0.8392846221436558 0  -0.6979926705334714 0.04814677181996406 0  0.5340323036859247 0.8726213302492312 0  0.06053309269828401 0.7958378794235653 0  -0.05331367300548859 0.7108704909726752 0  0.9095177520032207 0.7371646974898138 0  -0.06766581632653063 -0.8125 0  0.8125 0.9323341836734694 0  -0.2187890625 -0.9125390625000001 0  -0.9345238095238095 0.1875 0  -0.9345238095238095 0.0625 0  0.7134051364476723 0.3073482758635454 0  0.3125 0.9288949261476287 0  -0.4042724123663804 0.9125286410300845 0  -0.4949999542369525 -0.1493596599511396 0  -0.09239407266665742 -0.2461724613407035 0  -0.2093366127645507 -0.1984440709306872 0  -0.2059360412155581 -0.3724019555122094 0  -0.0804091139840676 -0.0827568723285774 0  -0.8427981025467879 0.5367463229836719 0  -0.9355758238725954 0.5625 0  0.6540089330334833 0.7841756205230718 0  -0.2158243794769282 -0.6540089330334833 0  0.7035166556728232 0.9201801158018177 0  -0.0642361111111111 -0.6875 0  -0.07885380226553393 -0.5474762618690654 0  -0.9357824737294695 -0.06250000000000001 0  -0.9357824737294695 -0.1875 0  -0.3439411677432879 -0.13494020852379 0  -0.9347182854684236 -0.3125 0  0.4170932698807319 0.6291798952220281 0  -0.6777923487058936 0.1843365303261547 0  -0.2367314998430761 -0.02889569893956546 0  0.2455186592956644 0.7514304800722968 0  0.338536877499326 0.7348609577948819 0  0.1885710820068421 0.6771665959432455 0  -0.9213577773344295 0.9213577773344295 0  0.9137392241379311 0.9137392241379311 0  0.9231189055495981 0.07688109445040187 0  -0.08626077586206894 -0.9137392241379311 0  -0.6639647901052842 -0.1257262374630617 0  -0.5902710222284796 -0.2551544903458088 0  -0.4117988467768269 -0.001860686761120153 0  -0.6503932413280177 -0.4204449326742939 0  -0.5437148183576677 0.8044235003728686 0  -0.03875102938182723 0.2530182418237549 0  0.05153520609246165 0.2488621202873337 0  0.6804294394047085 0.6402914975389431 0  -0.5461550659065946 0.06907378263691563 
[...]
<PointData  Scalars="f_531"> 
<DataArray  type="Float64"  Name="f_531"  format="ascii">0.0000000000000000e+00  0.0000000000000000e+00  0.0000000000000000e+00  0.0000000000000000e+00  0.0000000000000000e+00  0.0000000000000000e+00  0.0000000000000000e+00  0.0000000000000000e+00  0.0000000000000000e+00  0.0000000000000000e+00  0.0000000000000000e+00  0.0000000000000000e+00  0.0000000000000000e+00  0.0000000000000000e+00  0.0000000000000000e+00  0.0000000000000000e+00  0.0000000000000000e+00  0.0000000000000000e+00  0.0000000000000000e+00  0.0000000000000000e+00  0.0000000000000000e+00  0.0000000000000000e+00  0.0000000000000000e+00  0.0000000000000000e+00  0.0000000000000000e+00  0.0000000000000000e+00  0.0000000000000000e+00  0.0000000000000000e+00  0.0000000000000000e+00  0.0000000000000000e+00  0.0000000000000000e+00  0.0000000000000000e+00  0.0000000000000000e+00  0.0000000000000000e+00  0.0000000000000000e+00  0.0000000000000000e+00  0.0000000000000000e+00  0.0000000000000000e+00  0.0000000000000000e+00  0.0000000000000000e+00  0.0000000000000000e+00  0.0000000000000000e+00  0.0000000000000000e+00  0.0000000000000000e+00  0.0000000000000000e+00  0.0000000000000000e+00  0.0000000000000000e+00  0.0000000000000000e+00  0.0000000000000000e+00  0.0000000000000000e+00  0.0000000000000000e+00  0.0000000000000000e+00  0.0000000000000000e+00  0.0000000000000000e+00  0.0000000000000000e+00  0.0000000000000000e+00  0.0000000000000000e+00  0.0000000000000000e+00  0.0000000000000000e+00  0.0000000000000000e+00  0.0000000000000000e+00  0.0000000000000000e+00  0.0000000000000000e+00  0.0000000000000000e+00  0.0000000000000000e+00  0.0000000000000000e+00  0.0000000000000000e+00  0.0000000000000000e+00  0.0000000000000000e+00  0.0000000000000000e+00  0.0000000000000000e+00  0.0000000000000000e+00  0.0000000000000000e+00  0.0000000000000000e+00  0.0000000000000000e+00  0.0000000000000000e+00  0.0000000000000000e+00  0.0000000000000000e+00  0.0000000000000000e+00  0.0000000000000000e+00  0.0000000000000000e+00  0.0000000000000000e+00  0.0000000000000000e+00  0.0000000000000000e+00  0.0000000000000000e+00  0.0000000000000000e+00  0.0000000000000000e+00  0.0000000000000000e+00  0.0000000000000000e+00  0.0000000000000000e+00  0.0000000000000000e+00  0.0000000000000000e+00  0.0000000000000000e+00  0.0000000000000000e+00  0.0000000000000000e+00  0.0000000000000000e+00  0.0000000000000000e+00  0.0000000000000000e+00  0.0000000000000000e+00  0.0000000000000000e+00  0.0000000000000000e+00  0.0000000000000000e+00  0.0000000000000000e+00  0.0000000000000000e+00  0.0000000000000000e+00  0.0000000000000000e+00  0.0000000000000000e+00  0.0000000000000000e+00  0.0000000000000000e+00  0.0000000000000000e+00  0.0000000000000000e+00  0.0000000000000000e+00  0.0000000000000000e+00  0.0000000000000000e+00  0.0000000000000000e+00  0.0000000000000000e+00  0.0000000000000000e+00  0.0000000000000000e+00  0.0000000000000000e+00  0.0000000000000000e+00  0.0000000000000000e+00  0.0000000000000000e+00  0.0000000000000000e+00  0.0000000000000000e+00  0.0000000000000000e+00  0.0000000000000000e+00  0.0000000000000000e+00  0.0000000000000000e+00  0.0000000000000000e+00  0.0000000000000000e+00  0.0000000000000000e+00  0.0000000000000000e+00  0.0000000000000000e+00  0.0000000000000000e+00  0.0000000000000000e+00  0.0000000000000000e+00  0.0000000000000000e+00  0.0000000000000000e+00  0.0000000000000000e+00  0.0000000000000000e+00  0.0000000000000000e+00  0.0000000000000000e+00  0.0000000000000000e+00  0.0000000000000000e+00  0.0000000000000000e+00  0.0000000000000000e+00  0.0000000000000000e+00  0.0000000000000000e+00  0.0000000000000000e+00  0.0000000000000000e+00  0.0000000000000000e+00  0.0000000000000000e+00  0.0000000000000000e+00  0.0000000000000000e+00  0.0000000000000000e+00  0.0000000000000000e+00  0.0000000000000000e+00  0.0000000000000000e+00  0.0000000000000000e+00  0.0000000000000000e+00  0.0000000000000000e+00  0.0000000000000000e+00  0.0000000000000000e+00  0.0000000000000000e+00  0.0000000000000000e+00  0.0000000000000000e+00  0.0000000000000000e+00  0.0000000000000000e+00  0.0000000000000000e+00  0.0000000000000000e+00  0.0000000000000000e+00  0.0000000000000000e+00  0.0000000000000000e+00  0.0000000000000000e+00  0.0000000000000000e+00  0.0000000000000000e+00  0.0000000000000000e+00  0.0000000000000000e+00  0.0000000000000000e+00  0.0000000000000000e+00  0.0000000000000000e+00  0.0000000000000000e+00  0.0000000000000000e+00  0.0000000000000000e+00  0.0000000000000000e+00  0.0000000000000000e+00  0.0000000000000000e+00  0.0000000000000000e+00  0.0000000000000000e+00  0.0000000000000000e+00  0.0000000000000000e+00  0.0000000000000000e+00  0.0000000000000000e+00  0.0000000000000000e+00  0.0000000000000000e+00  0.0000000000000000e+00  0.0000000000000000e+00  0.0000000000000000e+00  0.0000000000000000e+00  0.0000000000000000e+00  0.0000000000000000e+00  0.0000000000000000e+00  0.0000000000000000e+00  0.0000000000000000e+00  0.0000000000000000e+00  0.0000000000000000e+00  0.0000000000000000e+00  0.0000000000000000e+00  0.0000000000000000e+00  0.0000000000000000e+00  0.0000000000000000e+00  0.0000000000000000e+00  0.0000000000000000e+00  0.0000000000000000e+00  0.0000000000000000e+00  0.0000000000000000e+00  0.0000000000000000e+00  0.0000000000000000e+00  0.0000000000000000e+00  0.0000000000000000e+00  0.0000000000000000e+00  0.0000000000000000e+00  0.0000000000000000e+00  0.0000000000000000e+00  0.0000000000000000e+00  0.0000000000000000e+00  0.0000000000000000e+00  0.0000000000000000e+00  0.0000000000000000e+00  0.0000000000000000e+00  0.0000000000000000e+00  0.0000000000000000e+00  0.0000000000000000e+00  0.0000000000000000e+00  0.0000000000000000e+00  0.0000000000000000e+00  0.0000000000000000e+00  0.0000000000000000e+00  0.0000000000000000e+00  0.0000000000000000e+00  0.0000000000000000e+00  0.0000000000000000e+00  0.0000000000000000e+00  0.0000000000000000e+00  0.0000000000000000e+00  0.0000000000000000e+00  0.0000000000000000e+00  0.0000000000000000e+00  0.0000000000000000e+00  0.0000000000000000e+00  0.0000000000000000e+00  0.0000000000000000e+00  0.0000000000000000e+00  0.0000000000000000e+00  0.0000000000000000e+00  0.0000000000000000e+00  0.0000000000000000e+00  0.0000000000000000e+00  0.0000000000000000e+00  0.0000000000000000e+00  0.0000000000000000e+00  0.0000000000000000e+00  0.0000000000000000e+00  0.0000000000000000e+00  0.0000000000000000e+00  0.0000000000000000e+00  0.0000000000000000e+00  0.0000000000000000e+00  0.0000000000000000e+00  0.0000000000000000e+00  0.0000000000000000e+00  0.0000000000000000e+00  0.0000000000000000e+00  0.0000000000000000e+00  0.0000000000000000e+00  0.0000000000000000e+00  0.0000000000000000e+00  0.0000000000000000e+00  0.0000000000000000e+00  0.0000000000000000e+00  0.0000000000000000e+00  0.0000000000000000e+00  0.0000000000000000e+00  0.0000000000000000e+00  0.0000000000000000e+00  0.0000000000000000e+00  0.0000000000000000e+00  0.0000000000000000e+00  0.0000000000000000e+00  0.0000000000000000e+00  0.0000000000000000e+00  0.0000000000000000e+00  0.0000000000000000e+00  0.0000000000000000e+00  0.0000000000000000e+00  0.0000000000000000e+00  0.0000000000000000e+00  0.0000000000000000e+00  0.0000000000000000e+00  0.0000000000000000e+00  0.0000000000000000e+00  0.0000000000000000e+00  0.0000000000000000e+00  0.0000000000000000e+00  0.0000000000000000e+00  0.0000000000000000e+00  0.0000000000000000e+00  0.0000000000000000e+00  0.0000000000000000e+00  0.0000000000000000e+00  0.0000000000000000e+00  0.0000000000000000e+00  0.0000000000000000e+00  0.0000000000000000e+00  0.0000000000000000e+00  0.0000000000000000e+00  0.0000000000000000e+00  0.0000000000000000e+00  0.0000000000000000e+00  0.0000000000000000e+00  0.0000000000000000e+00  0.0000000000000000e+00  0.0000000000000000e+00  0.0000000000000000e+00  0.0000000000000000e+00  0.0000000000000000e+00  0.0000000000000000e+00  0.0000000000000000e+00  0.0000000000000000e+00  0.0000000000000000e+00  0.0000000000000000e+00  0.0000000000000000e+00  0.0000000000000000e+00  0.0000000000000000e+00  0.0000000000000000e+00  0.0000000000000000e+00  0.0000000000000000e+00  0.0000000000000000e+00  0.0000000000000000e+00  0.0000000000000000e+00  0.0000000000000000e+00  0.0000000000000000e+00  0.0000000000000000e+00  0.0000000000000000e+00  0.0000000000000000e+00  0.0000000000000000e+00  0.0000000000000000e+00  0.0000000000000000e+00  0.0000000000000000e+00  0.0000000000000000e+00  0.0000000000000000e+00  0.0000000000000000e+00  0.0000000000000000e+00  0.0000000000000000e+00  0.0000000000000000e+00  0.0000000000000000e+00  0.0000000000000000e+00  0.0000000000000000e+00  0.0000000000000000e+00  0.0000000000000000e+00  0.0000000000000000e+00  0.0000000000000000e+00  0.0000000000000000e+00  0.0000000000000000e+00  0.0000000000000000e+00  0.0000000000000000e+00  0.0000000000000000e+00  0.0000000000000000e+00  0.0000000000000000e+00  0.0000000000000000e+00  0.0000000000000000e+00  0.0000000000000000e+00  0.0000000000000000e+00  0.0000000000000000e+00  0.0000000000000000e+00  0.0000000000000000e+00  0.0000000000000000e+00  0.0000000000000000e+00  0.0000000000000000e+00  0.0000000000000000e+00  0.0000000000000000e+00  0.0000000000000000e+00  0.0000000000000000e+00  0.0000000000000000e+00  0.0000000000000000e+00  0.0000000000000000e+00  0.0000000000000000e+00  0.0000000000000000e+00  0.0000000000000000e+00  0.0000000000000000e+00  0.0000000000000000e+00  0.0000000000000000e+00  0.0000000000000000e+00  0.0000000000000000e+00  0.0000000000000000e+00  0.0000000000000000e+00  0.0000000000000000e+00  0.0000000000000000e+00  0.0000000000000000e+00  0.0000000000000000e+00  0.0000000000000000e+00  0.0000000000000000e+00  0.0000000000000000e+00  0.0000000000000000e+00  0.0000000000000000e+00  0.0000000000000000e+00  0.0000000000000000e+00  0.0000000000000000e+00  0.0000000000000000e+00  0.0000000000000000e+00  0.0000000000000000e+00  0.0000000000000000e+00  0.0000000000000000e+00  0.0000000000000000e+00  0.0000000000000000e+00  0.0000000000000000e+00  0.0000000000000000e+00  0.0000000000000000e+00  0.0000000000000000e+00  0.0000000000000000e+00  0.0000000000000000e+00  0.0000000000000000e+00  0.0000000000000000e+00  0.0000000000000000e+00  0.0000000000000000e+00  0.0000000000000000e+00  0.0000000000000000e+00  0.0000000000000000e+00  0.0000000000000000e+00  0.0000000000000000e+00  0.0000000000000000e+00  0.0000000000000000e+00  0.0000000000000000e+00  0.0000000000000000e+00  0.0000000000000000e+00  0.0000000000000000e+00  0.0000000000000000e+00  0.0000000000000000e+00  0.0000000000000000e+00  0.0000000000000000e+00  0.0000000000000000e+00  0.0000000000000000e+00  0.0000000000000000e+00  0.0000000000000000e+00  0.0000000000000000e+00  0.0000000000000000e+00  0.0000000000000000e+00  0.0000000000000000e+00  0.0000000000000000e+00  0.0000000000000000e+00  0.0000000000000000e+00  0.0000000000000000e+00  0.0000000000000000e+00  0.0000000000000000e+00  0.0000000000000000e+00  0.0000000000000000e+00  0.0000000000000000e+00  0.0000000000000000e+00  0.0000000000000000e+00  0.0000000000000000e+00  0.0000000000000000e+00  0.0000000000000000e+00  0.0000000000000000e+00  0.0000000000000000e+00  0.0000000000000000e+00  0.0000000000000000e+00  0.0000000000000000e+00  0.0000000000000000e+00  0.0000000000000000e+00  0.0000000000000000e+00  0.0000000000000000e+00  0.0000000000000000e+00  0.0000000000000000e+00  0.0000000000000000e+00  0.0000000000000000e+00  0.0000000000000000e+00  0.0000000000000000e+00  0.0000000000000000e+00  0.0000000000000000e+00  0.0000000000000000e+00  0.0000000000000000e+00  0.0000000000000000e+00  0.0000000000000000e+00  0.0000000000000000e+00  0.0000000000000000e+00  0.0000000000000000e+00  0.0000000000000000e+00  0.0000000000000000e+00  0.0000000000000000e+00  0.0000000000000000e+00  0.0000000000000000e+00  0.0000000000000000e+00  0.0000000000000000e+00  0.0000000000000000e+00  0.0000000000000000e+00  0.0000000000000000e+00  0.0000000000000000e+00  0.0000000000000000e+00  0.0000000000000000e+00  0.0000000000000000e+00  0.0000000000000000e+00  0.0000000000000000e+00  0.0000000000000000e+00  0.0000000000000000e+00  0.0000000000000000e+00  0.0000000000000000e+00  0.0000000000000000e+00  0.0000000000000000e+00  0.0000000000000000e+00  0.0000000000000000e+00  0.0000000000000000e+00  0.0000000000000000e+00  0.0000000000000000e+00  0.0000000000000000e+00  0.0000000000000000e+00  0.0000000000000000e+00  0.0000000000000000e+00  0.0000000000000000e+00  0.0000000000000000e+00  0.0000000000000000e+00  0.0000000000000000e+00  0.0000000000000000e+00  0.0000000000000000e+00  0.0000000000000000e+00  0.0000000000000000e+00  0.0000000000000000e+00  0.0000000000000000e+00  0.0000000000000000e+00  0.0000000000000000e+00  0.0000000000000000e+00  0.0000000000000000e+00  0.0000000000000000e+00  0.0000000000000000e+00  0.0000000000000000e+00  0.0000000000000000e+00  0.0000000000000000e+00  0.0000000000000000e+00  0.0000000000000000e+00  0.0000000000000000e+00  0.0000000000000000e+00  0.0000000000000000e+00  0.0000000000000000e+00  0.0000000000000000e+00  0.0000000000000000e+00  0.0000000000000000e+00  0.0000000000000000e+00  0.0000000000000000e+00  0.0000000000000000e+00  0.0000000000000000e+00  0.0000000000000000e+00  0.0000000000000000e+00  0.0000000000000000e+00  0.0000000000000000e+00  0.0000000000000000e+00  0.0000000000000000e+00  0.0000000000000000e+00  0.0000000000000000e+00  0.0000000000000000e+00  0.0000000000000000e+00  0.0000000000000000e+00  0.0000000000000000e+00  0.0000000000000000e+00  0.0000000000000000e+00  0.0000000000000000e+00  0.0000000000000000e+00  0.0000000000000000e+00  0.0000000000000000e+00  0.0000000000000000e+00  0.0000000000000000e+00  0.0000000000000000e+00  0.0000000000000000e+00  0.0000000000000000e+00  0.0000000000000000e+00  0.0000000000000000e+00  0.0000000000000000e+00  0.0000000000000000e+00  0.0000000000000000e+00  0.0000000000000000e+00  0.0000000000000000e+00  0.0000000000000000e+00  0.0000000000000000e+00  0.0000000000000000e+00  0.0000000000000000e+00  0.0000000000000000e+00  0.0000000000000000e+00  0.0000000000000000e+00  0.0000000000000000e+00  0.0000000000000000e+00  0.0000000000000000e+00  0.0000000000000000e+00  0.0000000000000000e+00  0.0000000000000000e+00  0.0000000000000000e+00  0.0000000000000000e+00  0.0000000000000000e+00  0.0000000000000000e+00  0.0000000000000000e+00  0.0000000000000000e+00  0.0000000000000000e+00  0.0000000000000000e+00  0.0000000000000000e+00  0.0000000000000000e+00  0.0000000000000000e+00  0.0000000000000000e+00  0.0000000000000000e+00  0.0000000000000000e+00  0.0000000000000000e+00  0.0000000000000000e+00  0.0000000000000000e+00  0.0000000000000000e+00  0.0000000000000000e+00  0.0000000000000000e+00  0.0000000000000000e+00  0.0000000000000000e+00  0.0000000000000000e+00  0.0000000000000000e+00  0.0000000000000000e+00  0.0000000000000000e+00  0.0000000000000000e+00  0.0000000000000000e+00  0.0000000000000000e+00  0.0000000000000000e+00  0.0000000000000000e+00  0.0000000000000000e+00  0.0000000000000000e+00  0.0000000000000000e+00  0.0000000000000000e+00  0.0000000000000000e+00  0.0000000000000000e+00  0.0000000000000000e+00  0.0000000000000000e+00  0.0000000000000000e+00  0.0000000000000000e+00  0.0000000000000000e+00  0.0000000000000000e+00  0.0000000000000000e+00  0.0000000000000000e+00  0.0000000000000000e+00  0.0000000000000000e+00  0.0000000000000000e+00  0.0000000000000000e+00  0.0000000000000000e+00  0.0000000000000000e+00  0.0000000000000000e+00  0.0000000000000000e+00  0.0000000000000000e+00  0.0000000000000000e+00  0.0000000000000000e+00  0.0000000000000000e+00  0.0000000000000000e+00  0.0000000000000000e+00  0.0000000000000000e+00  0.0000000000000000e+00  0.0000000000000000e+00  0.0000000000000000e+00  0.0000000000000000e+00  0.0000000000000000e+00  0.0000000000000000e+00  0.0000000000000000e+00  0.0000000000000000e+00  0.0000000000000000e+00  0.0000000000000000e+00  0.0000000000000000e+00  0.0000000000000000e+00  0.0000000000000000e+00  0.0000000000000000e+00  0.0000000000000000e+00  0.0000000000000000e+00  0.0000000000000000e+00  0.0000000000000000e+00  0.0000000000000000e+00  0.0000000000000000e+00  0.0000000000000000e+00  0.0000000000000000e+00  0.0000000000000000e+00  0.0000000000000000e+00  0.0000000000000000e+00  0.0000000000000000e+00  0.0000000000000000e+00  0.0000000000000000e+00  0.0000000000000000e+00  0.0000000000000000e+00  0.0000000000000000e+00  0.0000000000000000e+00  0.0000000000000000e+00  0.0000000000000000e+00  0.0000000000000000e+00  0.0000000000000000e+00  0.0000000000000000e+00  0.0000000000000000e+00  0.0000000000000000e+00  0.0000000000000000e+00  0.0000000000000000e+00  0.0000000000000000e+00  0.0000000000000000e+00  0.0000000000000000e+00  0.0000000000000000e+00  0.0000000000000000e+00  0.0000000000000000e+00  0.0000000000000000e+00  0.0000000000000000e+00  0.0000000000000000e+00  0.0000000000000000e+00  0.0000000000000000e+00  0.0000000000000000e+00  0.0000000000000000e+00  0.0000000000000000e+00  0.0000000000000000e+00  0.0000000000000000e+00  0.0000000000000000e+00  0.0000000000000000e+00  0.0000000000000000e+00  0.0000000000000000e+00  0.0000000000000000e+00  0.0000000000000000e+00  0.0000000000000000e+00  0.0000000000000000e+00  0.0000000000000000e+00  0.0000000000000000e+00  0.0000000000000000e+00  0.0000000000000000e+00  0.0000000000000000e+00  0.0000000000000000e+00  0.0000000000000000e+00  0.0000000000000000e+00  0.0000000000000000e+00  0.0000000000000000e+00  0.0000000000000000e+00  0.0000000000000000e+00  0.0000000000000000e+00  0.0000000000000000e+00  0.0000000000000000e+00  0.0000000000000000e+00  0.0000000000000000e+00  0.0000000000000000e+00  0.0000000000000000e+00  0.0000000000000000e+00  0.0000000000000000e+00  0.0000000000000000e+00  0.0000000000000000e+00  0.0000000000000000e+00  0.0000000000000000e+00  0.0000000000000000e+00  0.0000000000000000e+00  0.0000000000000000e+00  0.0000000000000000e+00  0.0000000000000000e+00  0.0000000000000000e+00  0.0000000000000000e+00  0.0000000000000000e+00  0.0000000000000000e+00  0.0000000000000000e+00  0.0000000000000000e+00  0.0000000000000000e+00  0.0000000000000000e+00  0.0000000000000000e+00  0.0000000000000000e+00  0.0000000000000000e+00  0.0000000000000000e+00  0.0000000000000000e+00  0.0000000000000000e+00  0.0000000000000000e+00  0.0000000000000000e+00  0.0000000000000000e+00  0.0000000000000000e+00  0.0000000000000000e+00  0.0000000000000000e+00  0.0000000000000000e+00  0.0000000000000000e+00  0.0000000000000000e+00  0.0000000000000000e+00  0.0000000000000000e+00  0.0000000000000000e+00  0.0000000000000000e+00  0.0000000000000000e+00  0.0000000000000000e+00  0.0000000000000000e+00  0.0000000000000000e+00  0.0000000000000000e+00  0.0000000000000000e+00  0.0000000000000000e+00  0.0000000000000000e+00  0.0000000000000000e+00  0.0000000000000000e+00  0.0000000000000000e+00  0.0000000000000000e+00  0.0000000000000000e+00  0.0000000000000000e+00  0.0000000000000000e+00  0.0000000000000000e+00  0.0000000000000000e+00  0.0000000000000000e+00  0.0000000000000000e+00  0.0000000000000000e+00  0.0000000000000000e+00  0.0000000000000000e+00  0.0000000000000000e+00  0.0000000000000000e+00  0.0000000000000000e+00  0.0000000000000000e+00  0.0000000000000000e+00  0.0000000000000000e+00  0.0000000000000000e+00  0.0000000000000000e+00  0.0000000000000000e+00  0.0000000000000000e+00  0.0000000000000000e+00  0.0000000000000000e+00  0.0000000000000000e+00  0.0000000000000000e+00  0.0000000000000000e+00  0.0000000000000000e+00  0.0000000000000000e+00  0.0000000000000000e+00  0.0000000000000000e+00  0.0000000000000000e+00  0.0000000000000000e+00  0.0000000000000000e+00  0.0000000000000000e+00  0.0000000000000000e+00  0.0000000000000000e+00  0.0000000000000000e+00  0.0000000000000000e+00  0.0000000000000000e+00  0.0000000000000000e+00  0.0000000000000000e+00  0.0000000000000000e+00  0.0000000000000000e+00  0.0000000000000000e+00  0.000000000000000