<?xml version="1.0"?>
<VTKFile type="UnstructuredGrid"  version="0.1"  >
<UnstructuredGrid>
<Piece  NumberOfPoints="1066" NumberOfCells="2002">
<Points>
<DataArray  type="Float64"  NumberOfComponents="3"  format="ascii">-1 1 0  -1 -1 0  0 -1 0  0 0 0  1 0 0  1 1 0  -1 0 0  0 1 0  0 -0.5 0  -1 -0.5 0  -0.5 -1 0  -0.5 1 0  -1 0.5 0  1 0.5 0  0.5 1 0  0.5 0 0  -0.4166666666666667 0.4166666666666667 0  -0.5 -0.25 0  0.25 0.5 0  -0.625 -0.625 0  0.625 0.375 0  -0.1053921568627451 0.6348039215686274 0  -0.7380952380952381 0.25 0  -0.28125 -0.71875 0  -0.6770833333333334 0.6770833333333334 0  0.71875 0.71875 0  -0.447017916077322 0.08191890617633191 0  -0.1085353122730575 0.3081313543936093 0  -0.3875187227668845 0.7062312772331155 0  -0.75 -0.375 0  0.1454422194409678 0.7602211097204838 0  0.375 0.25 0  -0.2785326086956522 -0.4320652173913043 0  0.4320652173913043 0.7214673913043479 0  -0.7105977894832036 -0.04619557896640717 0  -0.2528701482407906 -0.1192597035184189 0  1 0.25 0  0.75 0 0  -0.75 -1 0  -1 -0.75 0  0.25 1 0  -1 -0.25 0  -0.75 1 0  0 -0.75 0  -0.25 -1 0  -1 0.25 0  -1 0.75 0  1 0.75 0  0.75 1 0  0.25 0 0  -0.25 1 0  0 -0.25 0  0.1340382421326261 0.285769121066313 0  -0.2192518626687895 0.1074543072246201 0  -0.7752976190476191 0.4732142857142857 0  0.03777648397223582 0.4763750798483721 0  0.4620753803475469 0.5112261410426409 0  -0.4264368775807627 -0.5740185511294631 0  -0.625 -0.8333333333333334 0  0.625 0.1666666666666667 0  0.798611111111111 0.2708333333333333 0  -0.8125 -0.5625 0  0.7864583333333334 0.515625 0  -0.212785768461136 0.8035073855376288 0  -0.8184523809523809 -0.8184523809523809 0  -0.2772504674066899 0.5488821937416017 0  -0.5638248415463649 -0.4348503169072702 0  -0.5203927892873141 0.5733572107126859 0  -0.625 0.8585349462365592 0  -0.8158532234335381 0.8158532234335381 0  -0.3496324880537026 0.2418389046065486 0  -0.543404045977127 0.26780644241167 0  -0.4375 -0.8229166666666667 0  -0.8690476190476191 0.125 0  -0.0314294275080956 0.8004214332389695 0  -0.8711516477451908 0.625 0  0.625 0.8715277777777778 0  -0.1284722222222222 -0.625 0  -0.627215057214452 0.11091945258738 0  -0.871564947458939 -0.125 0  -0.153125 -0.846875 0  0.846875 0.846875 0  1 0.125 0  -0.4256050005729202 -0.09168714807690875 0  0 -0.375 0  -0.1772529295205136 -0.2829187418269885 0  0.375 1 0  0.3014669189857678 0.8348712448174203 0  -0.6724871776117968 -0.2175256447764064 0  0.6234436084822068 0.5741339806051801 0  0.001386496772729895 0.1736691377962176 0  -0.131255659811195 0.4717013683396717 0  -0.3377403823054406 -0.257771902905202 0  -0.375 1 0  0.8681175595238095 0.6556919642857143 0  -0.2608422461317439 0.3761490645263582 0  -0.8690476190476191 0.3428819444444444 0  -0.4664744117609373 0.8444182597573975 0  -0.6517427775424292 0.3790994180286428 0  0.1540976495220332 0.1274964721183419 0  1 0.375 0  0.1310704661591709 0.6033300858541432 0  0.283178673724156 0.6582945992483733 0  -0.125 1 0  -0.5739701956109063 -0.1057078650595667 0  -0.4248811351503765 -0.3793807610172282 0  -0.3213255454167493 0.006740753593078519 0  -0.2639643719806763 -0.575558574879227 0  0.575558574879227 0.7360356280193237 0  -0.1430404589371981 -0.4815066425120773 0  0.4432790807885255 0.8662833366051317 0  0 -0.125 0  -0.297265625 -0.862890625 0  0.125 1 0  -0.145436282391303 -0.01934098460236217 0  0.2950672829310669 0.1337163585344665 0  0.8448748043818466 0.1227503912363067 0  -0.6874719167180324 -0.4999859583590162 0  -0.875 -0.4375 0  0.5208333333333334 0.2708333333333333 0  0.3616507606950939 0.399575380347547 0  -0.8543401807245865 -0.2711803614491731 0  0.4344878450763502 0.1234939225381751 0  -0.5375434859082332 0.717661896853494 0  -0.6450174292283248 0.5160879008421021 0  -0.7514880952380952 -0.6919642857142857 0  -0.5010996434171471 -0.6953948376232622 0  -1 -0.625 0  -0.2582128456264357 0.6795353630619356 0  -1 0.875 0  -0.875 1 0  -0.8835632306814941 -0.6875 0  -0.3394026512179202 0.8253731729597156 0  -0.875 -1 0  -1 -0.875 0  0.8880843495934959 0.4375 0  0.0367223624388119 0.6910764569410784 0  0.2615514391055298 0.3152583753235904 0  0.0625 0.8878935439095378 0  -0.1273070754986592 -0.160543044961911 0  -0.2189625940478212 0.2381752314270573 0  -0.8328024549176731 -0.0003776378104099476 0  0.375 0 0  -1 -0.375 0  0.125 0 0  -0.125 -1 0  0 -0.875 0  0 -0.625 0  0.875 0 0  0.625 1 0  -1 0.625 0  -1 -0.125 0  -1 0.125 0  -0.625 1 0  0.625 0 0  -0.625 -1 0  1 0.625 0  1 0.875 0  0.875 1 0  -1 0.375 0  -0.375 -1 0  -0.5413088712465005 0.4423370764309834 0  0.5021815938691322 0.3936517394642011 0  0.7528097587719298 0.3912570053606238 0  0.1854458991294115 0.8769873105267281 0  -0.3966687333356567 0.582507221281458 0  0.017312859432945 0.3464298072114061 0  0.1520915304933911 0.4144971012335941 0  -0.6341754397403996 -0.3341976959224977 0  -0.08564362394966704 0.08752384389757339 0  -0.7475024375077767 0.1287610569809362 0  0.5105109962466823 0.6254023899579764 0  0.3531050849263975 0.561013530116843 0  -0.3364368707563432 0.1241390232369397 0  0.9046934865900382 0.3125 0  -0.5078195952665543 -0.01370407657217318 0  -0.7578418819188018 0.59039693199147 0  -0.8911029511385831 0.457630732644321 0  0.728877013625975 0.1143660935528146 0  0.6807621627851316 0.47748587209555 0  -0.1673611111111111 -0.7329861111111111 0  0.7329861111111111 0.8326388888888889 0  -0.1075969041262288 0.1967372783773208 0  -0.3926465260387641 -0.7209260442751872 0  -0.06250000000000001 0.9075784153978477 0  -0.7608913483634644 0.3639675816471853 0  -0.7608815687160509 -0.1472843785633988 0  0.8994762243227933 0.548552037332427 0  -0.8479014475108225 0.2339409722222222 0  0.5666936618330399 0.4812852614633681 0  0.2209078121141329 0.2138900331412769 0  -0.1875 0.9100666767511092 0  -0.002890634579267901 0.5835286923450195 0  0.7657126143029676 0.6215569825454337 0  -0.5271579041393868 0.1582976030506575 0  -0.6508228291316527 -0.7291666666666667 0  0.625 0.2708333333333334 0  0.5398946345267419 0.1002873574382769 0  -0.6875 -0.9166666666666667 0  -0.5625 -0.9166666666666667 0  -0.6145726437401711 0.003526382672517162 0  -0.5390077243011293 -0.5477500163793804 0  -0.3773968515790759 -0.4770854161148048 0  0.7142645529438691 0.2146516710194772 0  -0.1119803166248119 -0.3739146499867094 0  -0.7868135738762577 0.6983486905292563 0  -0.8907853456887617 0.7349941230586937 0  0.9215147221778196 0.1875 0  0.05832848383709738 0.08637443493900702 0  -0.1647053721348516 0.7155803476090714 0  -0.7202042748917749 -0.5981128246753247 0  -0.90625 -0.53125 0  -0.78125 -0.46875 0  -0.714335168721991 0.7786013880448804 0  -0.429300315487313 0.1807416161735349 0  -0.3125 0.9217988672541995 0  -0.8125 0.9185024305424627 0  -0.7223065571427687 0.877398420931443 0  -0.5183029131888395 -0.3471242289211771 0  -0.4429978111934294 0.281092557636982 0  -0.6426408986478672 0.2795817484386994 0  -0.06691237974321128 0.3972758679150619 0  -0.3385235211323684 -0.6391970703876763 0  -0.8125 -0.9198868071818891 0  -0.9081573884446261 -0.7813915416098677 0  -0.7198547149502305 -0.8015636753053776 0  -0.9127280764323391 0.8304777962191686 0  -0.9090218332864629 -0.9090218332864629 0  0.818656994047619 0.746968005952381 0  -0.1766519737301065 0.5625018446840587 0  -0.3228951133780443 0.457400441805223 0  -0.2271959323756581 0.4661662778633191 0  0.4291172771148606 0.3302132192672673 0  -0.474799927732057 -0.4744586951550465 0  0.1546558946393902 0.5103691032214466 0  -0.7543596458728958 -0.2750400190386132 0  -0.4930629171941668 0.3611602470002761 0  -0.5625 0.9292674731182796 0  -0.4670321895988673 0.6528706775446687 0  -0.6111089467385603 0.6065325902789365 0  -0.4531512730939857 0.5051921796647932 0  -0.4159472675818778 -0.1928619696890267 0  -0.5333081138977825 -0.7910789498399147 0  -0.4375 -0.9224877450980392 0  -0.353233559236062 0.3407234792992738 0  -0.6205731793177731 0.7636993854042075 0  0.4976718605548645 0.7892292694459953 0  0.2686286416509047 0.4084328492470218 0  -0.3328385170002774 -0.3533098842846522 0  -0.2314236111111111 -0.798828125 0  -0.1263842282296248 0.8392846221436558 0  -0.6979926705334714 0.04814677181996406 0  0.5340323036859247 0.8726213302492312 0  0.06053309269828401 0.7958378794235653 0  -0.05331367300548859 0.7108704909726752 0  0.9095177520032207 0.7371646974898138 0  -0.06766581632653063 -0.8125 0  0.8125 0.9323341836734694 0  -0.2187890625 -0.9125390625000001 0  -0.9345238095238095 0.1875 0  -0.9345238095238095 0.0625 0  0.7134051364476723 0.3073482758635454 0  0.3125 0.9288949261476287 0  -0.4042724123663804 0.9125286410300845 0  -0.4949999542369525 -0.1493596599511396 0  -0.09239407266665742 -0.2461724613407035 0  -0.2093366127645507 -0.1984440709306872 0  -0.2059360412155581 -0.3724019555122094 0  -0.0804091139840676 -0.0827568723285774 0  -0.8427981025467879 0.5367463229836719 0  -0.9355758238725954 0.5625 0  0.6540089330334833 0.7841756205230718 0  -0.2158243794769282 -0.6540089330334833 0  0.7035166556728232 0.9201801158018177 0  -0.0642361111111111 -0.6875 0  -0.07885380226553393 -0.5474762618690654 0  -0.9357824737294695 -0.06250000000000001 0  -0.9357824737294695 -0.1875 0  -0.3439411677432879 -0.13494020852379 0  -0.9347182854684236 -0.3125 0  0.4170932698807319 0.6291798952220281 0  -0.6777923487058936 0.1843365303261547 0  -0.2367314998430761 -0.02889569893956546 0  0.2455186592956644 0.7514304800722968 0  0.338536877499326 0.7348609577948819 0  0.1885710820068421 0.6771665959432455 0  -0.9213577773344295 0.9213577773344295 0  0.9137392241379311 0.9137392241379311 0  0.9231189055495981 0.07688109445040187 0  -0.08626077586206894 -0.9137392241379311 0  -0.6639647901052842 -0.1257262374630617 0  -0.5902710222284796 -0.2551544903458088 0  -0.4117988467768269 -0.001860686761120153 0  -0.6503932413280177 -0.4204449326742939 0  -0.5437148183576677 0.8044235003728686 0  -0.03875102938182723 0.2530182418237549 0  0.05153520609246165 0.2488621202873337 0  0.6804294394047085 0.6402914975389431 0  -0.5461550659065946 0.06907378263691563 
[...]
<PointData  Vectors="f_526"> 
<DataArray  type="Float64"  Name="f_526"  NumberOfComponents="3" format="ascii">6.6998454157260096e+02 6.6998454157259869e+02 0.0000000000000000e+00  8.8955982796801422e+01 3.8842721730257784e+02 0.0000000000000000e+00  1.7672200438236152e-11 5.1803594952444676e-12 0.0000000000000000e+00  0.0000000000000000e+00 0.0000000000000000e+00 0.0000000000000000e+00  0.0000000000000000e+00 0.0000000000000000e+00 0.0000000000000000e+00  3.8842721730258137e+02 8.8955982796787211e+01 0.0000000000000000e+00  3.1114903132212606e+02 5.7293872795495315e+02 0.0000000000000000e+00  5.7293872795495656e+02 3.1114903132212208e+02 0.0000000000000000e+00  1.2116709388497930e-11 3.5518446472581974e-12 0.0000000000000000e+00  1.6501782244614972e+02 4.7635171189912637e+02 0.0000000000000000e+00  2.4228273360184470e+01 1.9427822338970486e+02 0.0000000000000000e+00  6.3579598120021637e+02 5.0030812700193201e+02 0.0000000000000000e+00  5.0030812700193400e+02 6.3579598120021410e+02 0.0000000000000000e+00  1.9427822338970526e+02 2.4228273360168611e+01 0.0000000000000000e+00  4.7635171189913063e+02 1.6501782244614094e+02 0.0000000000000000e+00  0.0000000000000000e+00 0.0000000000000000e+00 0.0000000000000000e+00  3.3983950299595642e+02 2.6396553397224028e+02 0.0000000000000000e+00  1.3643708337264195e+02 1.7885523068537316e+02 0.0000000000000000e+00  2.5898881870270810e+02 9.8490618262834204e+01 0.0000000000000000e+00  8.6813649059496612e+01 2.2059753161178992e+02 0.0000000000000000e+00  1.6434975892148614e+02 4.3172609084341289e+01 0.0000000000000000e+00  3.8450507999968841e+02 2.1525730427984163e+02 0.0000000000000000e+00  3.4310978508371056e+02 4.0726728048054662e+02 0.0000000000000000e+00  2.9093746594403285e+01 7.2724302306572000e+01 0.0000000000000000e+00  5.0078050488002009e+02 4.6396739374213433e+02 0.0000000000000000e+00  3.0919483178310719e+02 8.3104083721003931e+01 0.0000000000000000e+00  2.1745223392850815e+02 2.0008604791567461e+02 0.0000000000000000e+00  2.2457122401930218e+02 1.1777568007898454e+02 0.0000000000000000e+00  4.6750850134630463e+02 3.4120762008144635e+02 0.0000000000000000e+00  1.5460429074005384e+02 3.1458634025717600e+02 0.0000000000000000e+00  4.0983826607746795e+02 1.8781920218177098e+02 0.0000000000000000e+00  1.2206672140466534e+02 3.7580654956832717e+01 0.0000000000000000e+00  5.7677341805805760e+01 6.8594542383492680e+01 0.0000000000000000e+00  3.4611006348938719e+02 1.2215833886449698e+02 0.0000000000000000e+00  2.3580881531553916e+02 3.3549960203805028e+02 0.0000000000000000e+00  1.0379756470531559e+02 7.9932429311548660e+01 0.0000000000000000e+00  9.3055136111852732e+01 5.7307848085826558e+00 0.0000000000000000e+00  0.0000000000000000e+00 0.0000000000000000e+00 0.0000000000000000e+00  5.3415431043121508e+01 2.9442501512637062e+02 0.0000000000000000e+00  1.1981380886576450e+02 4.2925298525517979e+02 0.0000000000000000e+00  5.2642194210362209e+02 2.2876578388956415e+02 0.0000000000000000e+00  2.2876578388957040e+02 5.2642194210361765e+02 0.0000000000000000e+00  6.5457389010745771e+02 5.8933433236915459e+02 0.0000000000000000e+00  1.5109967091838009e-11 4.4404615072132140e-12 0.0000000000000000e+00  5.7307848085995206e+00 9.3055136111854807e+01 0.0000000000000000e+00  4.0516238004867108e+02 6.0973631820627156e+02 0.0000000000000000e+00  5.8933433236915664e+02 6.5457389010745533e+02 0.0000000000000000e+00  2.9442501512637273e+02 5.3415431043106423e+01 0.0000000000000000e+00  4.2925298525518389e+02 1.1981380886575290e+02 0.0000000000000000e+00  0.0000000000000000e+00 0.0000000000000000e+00 0.0000000000000000e+00  6.0973631820627463e+02 4.0516238004866864e+02 0.0000000000000000e+00  8.3076607759416831e-12 2.4352750827114875e-12 0.0000000000000000e+00  1.6592900283208544e+02 6.2654948013105788e+01 0.0000000000000000e+00  1.6457431661926773e+02 1.0432326239940534e+02 0.0000000000000000e+00  4.3659792505043993e+02 4.7454813383734535e+02 0.0000000000000000e+00  2.7927246445159250e+02 1.2892670931353203e+02 0.0000000000000000e+00  2.4005252116847069e+02 7.6972136312227249e+01 0.0000000000000000e+00  6.4864422564442165e+01 1.2535524185789939e+02 0.0000000000000000e+00  5.7318551670151990e+01 2.2444515178675405e+02 0.0000000000000000e+00  7.2714222682663362e+01 1.8126136198749627e+01 0.0000000000000000e+00  1.1085002897247550e+02 2.1219635829956808e+01 0.0000000000000000e+00  1.2522379232235917e+02 3.3371772836305610e+02 0.0000000000000000e+00  2.1478089836756695e+02 4.8105235919529392e+01 0.0000000000000000e+00  4.9119797726747953e+02 3.1067518326975062e+02 0.0000000000000000e+00  8.4759049355119274e+01 3.1796226407331079e+02 0.0000000000000000e+00  3.7236282296158663e+02 2.4533016362513831e+02 0.0000000000000000e+00  1.1019401887978107e+02 1.9695298811437777e+02 0.0000000000000000e+00  4.2794574721542841e+02 3.5731899095435097e+02 0.0000000000000000e+00  5.7535707229480533e+02 4.9373432627051477e+02 0.0000000000000000e+00  5.8121624660888085e+02 5.6616763259857191e+02 0.0000000000000000e+00  2.5270253635456979e+02 1.8830490883908973e+02 0.0000000000000000e+00  3.0690827301625916e+02 2.9093235516322358e+02 0.0000000000000000e+00  3.6472530755969821e+01 1.4124635575663882e+02 0.0000000000000000e+00  3.2720544534591562e+02 4.8197273773889015e+02 0.0000000000000000e+00  4.6088041563707509e+02 2.4931220326751222e+02 0.0000000000000000e+00  5.1622042889221427e+02 5.6168714912276403e+02 0.0000000000000000e+00  3.9121436380579848e+02 1.1994856787422529e+02 0.0000000000000000e+00  1.6404213028248680e+01 2.3954039113934627e+01 0.0000000000000000e+00  2.6891538670836070e+02 3.0818181648128592e+02 0.0000000000000000e+00  2.4367491539368194e+02 4.4183584783981729e+02 0.0000000000000000e+00  8.8169821230598302e+00 3.9504727726449374e+01 0.0000000000000000e+00  3.4924329088476122e+02 8.5531966873834335e+01 0.0000000000000000e+00  4.4846196072102423e+01 1.3406800652655424e+00 0.0000000000000000e+00  1.5881010598434199e+02 1.6006590646956269e+02 0.0000000000000000e+00  1.0359948143494558e-11 3.0445434241059432e-12 0.0000000000000000e+00  5.2162436024410432e+01 4.0673027624794784e+01 0.0000000000000000e+00  5.0136648249134828e+02 1.9441617819153618e+02 0.0000000000000000e+00  4.2474805961254202e+02 1.7254336666534974e+02 0.0000000000000000e+00  1.7918358596758230e+02 2.8407620425620757e+02 0.0000000000000000e+00  2.5391172864951602e+02 7.1777263161674696e+01 0.0000000000000000e+00  1.3035666265983929e+02 5.5646837848432384e+01 0.0000000000000000e+00  3.0781117983070487e+02 1.7142026809351748e+02 0.0000000000000000e+00  9.8085430564428236e+01 1.0086131075006271e+02 0.0000000000000000e+00  6.2394793933101516e+02 4.5317572940014196e+02 0.0000000000000000e+00  2.6750288035514012e+02 5.7053967995470089e+01 0.0000000000000000e+00  2.8952246049444426e+02 1.8732026224444914e+02 0.0000000000000000e+00  4.0793018045090599e+02 5.1686638088261975e+02 0.0000000000000000e+00  5.4870033938239078e+02 4.2355458318466196e+02 0.0000000000000000e+00  3.7328451842707642e+02 3.7845278617445740e+02 0.0000000000000000e+00  7.6513971713722185e+01 2.5534325366148806e+01 0.0000000000000000e+00  1.4330010929662745e+02 1.3410956903307055e+01 0.0000000000000000e+00  3.2910170364584440e+02 1.4552422601763197e+02 0.0000000000000000e+00  3.3486336353828835e+02 1.3185318122702799e+02 0.0000000000000000e+00  5.9276294936805095e+02 3.5736652363884201e+02 0.0000000000000000e+00  1.8923240367132453e+02 2.3882466510925266e+02 0.0000000000000000e+00  9.4790120313143333e+01 1.3086265138276835e+02 0.0000000000000000e+00  1.5972054474986294e+02 1.2657169706312115e+02 0.0000000000000000e+00  3.9556899228845374e+01 6.2413851238826503e+01 0.0000000000000000e+00  3.3418071791290748e+02 1.0415745388316405e+02 0.0000000000000000e+00  2.6597002803957555e+01 2.6662331694192343e+01 0.0000000000000000e+00  4.1773963430497281e+02 1.5053846362033877e+02 0.0000000000000000e+00  5.6960372123504249e-12 1.6697139986270139e-12 0.0000000000000000e+00  1.8946895147739209e+01 9.0468459322670995e+01 0.0000000000000000e+00  5.5058865526422369e+02 2.6790230196617597e+02 0.0000000000000000e+00  9.1442056615955806e+01 5.3618258354317192e+01 0.0000000000000000e+00  6.9056209790322967e+01 2.1256568797884515e+01 0.0000000000000000e+00  4.8836059924836782e+01 7.6021651845921534e+00 0.0000000000000000e+00  1.1813287471490278e+02 2.6224865660039620e+02 0.0000000000000000e+00  1.6047076439460207e+02 3.9298386399030829e+02 0.0000000000000000e+00  1.2332133478161809e+02 3.4682439258407946e+01 0.0000000000000000e+00  1.9607865330662327e+02 6.4963531695717506e+01 0.0000000000000000e+00  1.9823224229113029e+02 4.0392431607694903e+02 0.0000000000000000e+00  5.8499298660138194e+01 1.6953619901472059e+01 0.0000000000000000e+00  4.9646332812003288e+02 4.0927239998754254e+02 0.0000000000000000e+00  4.2701292437786935e+02 4.0636126307354402e+02 0.0000000000000000e+00  9.4125585604575178e+01 2.8691927344631921e+02 0.0000000000000000e+00  5.9313143786906089e+01 1.6037812882776470e+02 0.0000000000000000e+00  1.4031895349306393e+02 4.5213995711794684e+02 0.0000000000000000e+00  4.3317133719512293e+02 2.8186684564873644e+02 0.0000000000000000e+00  6.3070811299491845e+02 6.6251044449222229e+02 0.0000000000000000e+00  6.6251044449222422e+02 6.3070811299491663e+02 0.0000000000000000e+00  1.1334719494213753e+02 3.6481405337990600e+02 0.0000000000000000e+00  5.2158870384910006e+02 3.6609994885653037e+02 0.0000000000000000e+00  7.0652636802014342e+01 3.4234479959004017e+02 0.0000000000000000e+00  1.0289444770667613e+02 4.0797989491058416e+02 0.0000000000000000e+00  1.7530963626475597e+02 2.9914222440155413e+01 0.0000000000000000e+00  3.9028317492943285e+02 1.9366887992034827e+02 0.0000000000000000e+00  1.6460053517599479e+02 5.6318130686632117e+01 0.0000000000000000e+00  4.9510564596534010e+02 2.5074129345405760e+02 0.0000000000000000e+00  5.2216029486534552e+01 3.2446359787328703e+01 0.0000000000000000e+00  2.1905014531436271e+02 1.3493948061781620e+02 0.0000000000000000e+00  2.7593847895422772e+02 4.3243956111051170e+02 0.0000000000000000e+00  0.0000000000000000e+00 0.0000000000000000e+00 0.0000000000000000e+00  1.9441617819154371e+02 5.0136648249134396e+02 0.0000000000000000e+00  0.0000000000000000e+00 0.0000000000000000e+00 0.0000000000000000e+00  1.3406800652828077e+00 4.4846196072106196e+01 0.0000000000000000e+00  1.6432928160945500e-11 4.7968101595627113e-12 0.0000000000000000e+00  1.3682032501604265e-11 3.9752492403067498e-12 0.0000000000000000e+00  0.0000000000000000e+00 0.0000000000000000e+00 0.0000000000000000e+00  4.5213995711795110e+02 1.4031895349305387e+02 0.0000000000000000e+00  5.4582457443081103e+02 6.4582317388351544e+02 0.0000000000000000e+00  2.6790230196618091e+02 5.5058865526421971e+02 0.0000000000000000e+00  3.5736652363884519e+02 5.9276294936804697e+02 0.0000000000000000e+00  6.4582317388351782e+02 5.4582457443080909e+02 0.0000000000000000e+00  0.0000000000000000e+00 0.0000000000000000e+00 0.0000000000000000e+00  3.7750522905439986e+01 2.4491048884004672e+02 0.0000000000000000e+00  2.4491048884004812e+02 3.7750522905424468e+01 0.0000000000000000e+00  3.4234479959004307e+02 7.0652636801999762e+01 0.0000000000000000e+00  4.0797989491058803e+02 1.0289444770666316e+02 0.0000000000000000e+00  4.5317572940014412e+02 6.2394793933101244e+02 0.0000000000000000e+00  1.3410956903323331e+01 1.4330010929662819e+02 0.0000000000000000e+00  3.7589772186099083e+02 3.3196725070683863e+02 0.0000000000000000e+00  1.8113145300701845e+02 5.3756130597943304e+01 0.0000000000000000e+00  1.6385917478417656e+02 3.6404864983523723e+01 0.0000000000000000e+00  4.6772269731648254e+02 2.1216489258685831e+02 0.0000000000000000e+00  4.0983408178429397e+02 3.0402612058136975e+02 0.0000000000000000e+00  2.1739726498279990e+02 9.7372874762944079e+01 0.0000000000000000e+00  2.2941538424145961e+02 9.1456886531753966e+01 0.0000000000000000e+00  1.4361223382744811e+02 2.4590323475397508e+02 0.0000000000000000e+00  1.1036477985933712e+02 5.5056421841229131e+01 0.0000000000000000e+00  3.0157556864179179e+02 3.9152624136981444e+02 0.0000000000000000e+00  2.8940128882086009e+02 9.2648625763727750e+01 0.0000000000000000e+00  2.7642849021785332e+02 9.8923546637472683e+01 0.0000000000000000e+00  2.0415172687056761e+02 1.5572660918882514e+02 0.0000000000000000e+00  1.2302143377350697e+02 1.7440886046485343e+01 0.0000000000000000e+00  2.0127777084281090e+02 2.1536971976812040e+02 0.0000000000000000e+00  4.7953142082885353e+02 4.8742998939889526e+02 0.0000000000000000e+00  4.5687109548776471e+02 5.5020410841323724e+02 0.0000000000000000e+00  4.7874677155239411e+01 1.0130291140803854e+01 0.0000000000000000e+00  2.0592991295750568e+02 5.2627637179280136e+01 0.0000000000000000e+00  1.5582998665476930e+01 3.7209045193509965e+01 0.0000000000000000e+00  3.5791374854208277e+02 9.8283588159806158e+01 0.0000000000000000e+00  1.7089077893813152e+02 8.8229797714400604e+01 0.0000000000000000e+00  4.2278168250288076e+01 1.1496298961920164e+02 0.0000000000000000e+00  5.2719949715389259e+02 2.9822006726953850e+02 0.0000000000000000e+00  3.9110043149163056e+02 4.4425214748362765e+02 0.0000000000000000e+00  2.1567377913673462e+02 3.5455431876399734e+02 0.0000000000000000e+00  2.2060304149275362e+02 4.0573601094203916e+01 0.0000000000000000e+00  3.6209296380606827e+02 4.8343936035768877e+02 0.0000000000000000e+00  2.1650323359367616e+02 6.2618345051667809e+01 0.0000000000000000e+00  1.1677069570306806e+02 3.8859693765425583e+01 0.0000000000000000e+00  5.4760053985185823e+02 3.4338991338545588e+02 0.0000000000000000e+00  3.4068048843686904e+02 1.7020624836986781e+02 0.0000000000000000e+00  2.6197645911274549e+02 6.3893446337355051e+01 0.0000000000000000e+00  2.6289355517642684e+02 2.5827275237009673e+02 0.0000000000000000e+00  7.4691798930375541e+01 2.3296430950288399e+02 0.0000000000000000e+00  1.1833596162446909e+02 3.0135049203764257e+01 0.0000000000000000e+00  4.5285174351768646e+01 1.2202372040018306e+01 0.0000000000000000e+00  5.4902929927447836e+01 2.5936387414333569e+02 0.0000000000000000e+00  3.9883714684799195e+01 2.0554036999053568e+02 0.0000000000000000e+00  2.3076717214220284e+02 2.8097707177115973e+02 0.0000000000000000e+00  8.6296206328784223e+01 1.7846472931389360e+02 0.0000000000000000e+00  7.0258585504348957e+01 1.0580247546652531e+02 0.0000000000000000e+00  9.0555504047417713e+01 2.0100904626385411e+01 0.0000000000000000e+00  2.6914226243196222e+01 2.0378679237032991e+01 0.0000000000000000e+00  5.2869205480348433e+02 5.2640709073427149e+02 0.0000000000000000e+00  5.6200601535620706e+02 5.8999756950490428e+02 0.0000000000000000e+00  7.2096505660645860e+01 8.0787924820596722e+00 0.0000000000000000e+00  6.4483724230572747e+01 2.3925157509375470e+01 0.0000000000000000e+00  4.3644995306774302e+02 2.6186929075511006e+02 0.0000000000000000e+00  1.0517839548804771e+02 2.7434001068497088e+02 0.0000000000000000e+00  1.4506920029982277e+02 4.0105313529387377e+02 0.0000000000000000e+00  1.3913191046358142e+02 3.2396672135687692e+02 0.0000000000000000e+00  5.5068282508262882e+02 5.0908088738139554e+02 0.0000000000000000e+00  2.4821517242384056e+02 2.1151084947724175e+02 0.0000000000000000e+00  5.7132507741315862e+02 3.9492435485836648e+02 0.0000000000000000e+00  6.2337954404461823e+02 5.8845908770418578e+02 0.0000000000000000e+00  5.9555387482652679e+02 5.4037640866483775e+02 0.0000000000000000e+00  1.1915169013865942e+02 1.7934441291536834e+02 0.0000000000000000e+00  2.8978918927192558e+02 2.4145734150846994e+02 0.0000000000000000e+00  3.3307725549300596e+02 3.5144854393589537e+02 0.0000000000000000e+00  2.5904471088054771e+02 1.3127611737979390e+02 0.0000000000000000e+00  4.4023981678938803e+01 9.0371442644591582e+01 0.0000000000000000e+00  7.0979562203194234e+01 3.1449802977333428e+02 0.0000000000000000e+00  1.0236914607508317e+02 3.6914687713880585e+02 0.0000000000000000e+00  7.3764711154705282e+01 2.6832781011115611e+02 0.0000000000000000e+00  6.0145562328198582e+02 6.1546580960115034e+02 0.0000000000000000e+00  8.5721186929424448e+01 3.5855428647393740e+02 0.0000000000000000e+00  3.1055010162895360e+02 7.5084853346824019e+01 0.0000000000000000e+00  3.6059688327038884e+02 2.1416441821070808e+02 0.0000000000000000e+00  3.3875513072785316e+02 2.3507511795450228e+02 0.0000000000000000e+00  3.2382620296666670e+02 2.0133134872872645e+02 0.0000000000000000e+00  1.5676236964541334e+02 4.8045642072631679e+01 0.0000000000000000e+00  8.7743838160816850e+01 1.4957011246423701e+02 0.0000000000000000e+00  2.7777383791473449e+02 1.1570007839685672e+02 0.0000000000000000e+00  1.7959826983137026e+02 3.3085772887605771e+02 0.0000000000000000e+00  3.3267475522908728e+02 2.8636516214848882e+02 0.0000000000000000e+00  6.0366120254623627e+02 4.9441574085396292e+02 0.0000000000000000e+00  4.5477882226530932e+02 3.5700657007708088e+02 0.0000000000000000e+00  4.5880529423762698e+02 4.1156016325607231e+02 0.0000000000000000e+00  3.8539049319964073e+02 3.0579221612515914e+02 0.0000000000000000e+00  1.3080863528891544e+02 1.4252057896203399e+02 0.0000000000000000e+00  5.1278543716263549e+01 1.7977158599057293e+02 0.0000000000000000e+00  2.6156905342848031e+01 1.5418492568635236e+02 0.0000000000000000e+00  2.9419495666099760e+02 2.1504378646384978e+02 0.0000000000000000e+00  5.3031298185654464e+02 4.6133960986075471e+02 0.0000000000000000e+00  3.7049550471805605e+02 1.2546958435489536e+02 0.0000000000000000e+00  2.1064276271747022e+02 7.5370192832593190e+01 0.0000000000000000e+00  8.0171286151426969e+01 9.2403814058502050e+01 0.0000000000000000e+00  1.7832126500260003e+01 6.0958198284382860e+01 0.0000000000000000e+00  4.9780411458611758e+02 2.9416030645681570e+02 0.0000000000000000e+00  2.6333531181806688e+02 3.4293168985359978e+02 0.0000000000000000e+00  4.0607884001736778e+02 1.3513248184905854e+02 0.0000000000000000e+00  4.4327525799916003e+02 2.2090743255052226e+02 0.0000000000000000e+00  4.1564524031911247e+02 2.2512998375294910e+02 0.0000000000000000e+00  2.9735257093928226e+02 6.2822917195704875e+01 0.0000000000000000e+00  4.1698781301796304e+00 1.4312309199094063e+01 0.0000000000000000e+00  3.8979721606192516e+02 1.0185492096546137e+02 0.0000000000000000e+00  9.6347461968339161e+00 6.7814550484101758e+01 0.0000000000000000e+00  3.6522769566102579e+02 5.4520435388490796e+02 0.0000000000000000e+00  3.1940902888607206e+02 5.2566435031920184e+02 0.0000000000000000e+00  1.3008579317174414e+02 2.9763942397606201e+01 0.0000000000000000e+00  4.7408368470163930e+02 1.9348807863148139e+02 0.0000000000000000e+00  5.7736491144986030e+02 4.2621480076825776e+02 0.0000000000000000e+00  1.5989926531550560e+02 1.8811573748631639e+02 0.0000000000000000e+00  3.0485980779955121e+01 1.8767553389547530e+01 0.0000000000000000e+00  7.3940045619023223e+01 5.6256499360389917e+01 0.0000000000000000e+00  4.9134919558033602e+01 4.6060311903472140e+01 0.0000000000000000e+00  4.4603159576033285e+01 2.3929378882414404e+01 0.0000000000000000e+00  4.7608057966992521e+02 5.2948806151136444e+02 0.0000000000000000e+00  5.0718162404443729e+02 5.9528157078658660e+02 0.0000000000000000e+00  3.4650578560285254e+02 1.0152004688193425e+02 0.0000000000000000e+00  2.6157258101160902e+01 4.8566598923460703e+01 0.0000000000000000e+00  4.0139208216381195e+02 1.1549549874757538e+02 0.0000000000000000e+00  6.5599017648571341e+00 1.0904924850291430e+01 0.0000000000000000e+00  1.2274234286270385e+01 1.2461029107097263e+01 0.0000000000000000e+00  2.7630984106756858e+02 5.0562425589356741e+02 0.0000000000000000e+00  2.3642840440895236e+02 4.8336304544676045e+02 0.0000000000000000e+00  1.2644062414309884e+02 1.1593568582395643e+02 0.0000000000000000e+00  2.0060573999387469e+02 4.5978859776771287e+02 0.0000000000000000e+00  3.0229306248705649e+02 1.0508762768886297e+02 0.0000000000000000e+00  3.0584602675500332e+02 3.5452927926964406e+02 0.0000000000000000e+00  1.2260829263541184e+02 8.5767687533382770e+01 0.0000000000000000e+00  3.8914619289709464e+02 1.6287333106534808e+02 0.0000000000000000e+00  3.66277572