<?xml version="1.0"?>
<VTKFile type="UnstructuredGrid"  version="0.1"  >
<UnstructuredGrid>
<Piece  NumberOfPoints="1025" NumberOfCells="3840">
<Points>
<DataArray  type="Float64"  NumberOfComponents="3"  format="ascii">0 0 0  0.25 0 0  0.5 0 0  0.75 0 0  1 0 0  1.25 0 0  1.5 0 0  1.75 0 0  2 0 0  2.25 0 0  2.5 0 0  2.75 0 0  3 0 0  3.25 0 0  3.5 0 0  3.75 0 0  4 0 0  4.25 0 0  4.5 0 0  4.75 0 0  5 0 0  5.25 0 0  5.5 0 0  5.75 0 0  6 0 0  6.25 0 0  6.5 0 0  6.75 0 0  7 0 0  7.25 0 0  7.5 0 0  7.75 0 0  8 0 0  8.25 0 0  8.5 0 0  8.75 0 0  9 0 0  9.25 0 0  9.5 0 0  9.75 0 0  10 0 0  0 0.25 0  0.25 0.25 0  0.5 0.25 0  0.75 0.25 0  1 0.25 0  1.25 0.25 0  1.5 0.25 0  1.75 0.25 0  2 0.25 0  2.25 0.25 0  2.5 0.25 0  2.75 0.25 0  3 0.25 0  3.25 0.25 0  3.5 0.25 0  3.75 0.25 0  4 0.25 0  4.25 0.25 0  4.5 0.25 0  4.75 0.25 0  5 0.25 0  5.25 0.25 0  5.5 0.25 0  5.75 0.25 0  6 0.25 0  6.25 0.25 0  6.5 0.25 0  6.75 0.25 0  7 0.25 0  7.25 0.25 0  7.5 0.25 0  7.75 0.25 0  8 0.25 0  8.25 0.25 0  8.5 0.25 0  8.75 0.25 0  9 0.25 0  9.25 0.25 0  9.5 0.25 0  9.75 0.25 0  10 0.25 0  0 0.5 0  0.25 0.5 0  0.5 0.5 0  0.75 0.5 0  1 0.5 0  1.25 0.5 0  1.5 0.5 0  1.75 0.5 0  2 0.5 0  2.25 0.5 0  2.5 0.5 0  2.75 0.5 0  3 0.5 0  3.25 0.5 0  3.5 0.5 0  3.75 0.5 0  4 0.5 0  4.25 0.5 0  4.5 0.5 0  4.75 0.5 0  5 0.5 0  5.25 0.5 0  5.5 0.5 0  5.75 0.5 0  6 0.5 0  6.25 0.5 0  6.5 0.5 0  6.75 0.5 0  7 0.5 0  7.25 0.5 0  7.5 0.5 0  7.75 0.5 0  8 0.5 0  8.25 0.5 0  8.5 0.5 0  8.75 0.5 0  9 0.5 0  9.25 0.5 0  9.5 0.5 0  9.75 0.5 0  10 0.5 0  0 0.75 0  0.25 0.75 0  0.5 0.75 0  0.75 0.75 0  1 0.75 0  1.25 0.75 0  1.5 0.75 0  1.75 0.75 0  2 0.75 0  2.25 0.75 0  2.5 0.75 0  2.75 0.75 0  3 0.75 0  3.25 0.75 0  3.5 0.75 0  3.75 0.75 0  4 0.75 0  4.25 0.75 0  4.5 0.75 0  4.75 0.75 0  5 0.75 0  5.25 0.75 0  5.5 0.75 0  5.75 0.75 0  6 0.75 0  6.25 0.75 0  6.5 0.75 0  6.75 0.75 0  7 0.75 0  7.25 0.75 0  7.5 0.75 0  7.75 0.75 0  8 0.75 0  8.25 0.75 0  8.5 0.75 0  8.75 0.75 0  9 0.75 0  9.25 0.75 0  9.5 0.75 0  9.75 0.75 0  10 0.75 0  0 1 0  0.25 1 0  0.5 1 0  0.75 1 0  1 1 0  1.25 1 0  1.5 1 0  1.75 1 0  2 1 0  2.25 1 0  2.5 1 0  2.75 1 0  3 1 0  3.25 1 0  3.5 1 0  3.75 1 0  4 1 0  4.25 1 0  4.5 1 0  4.75 1 0  5 1 0  5.25 1 0  5.5 1 0  5.75 1 0  6 1 0  6.25 1 0  6.5 1 0  6.75 1 0  7 1 0  7.25 1 0  7.5 1 0  7.75 1 0  8 1 0  8.25 1 0  8.5 1 0  8.75 1 0  9 1 0  9.25 1 0  9.5 1 0  9.75 1 0  10 1 0  0 0 0.25  0.25 0 0.25  0.5 0 0.25  0.75 0 0.25  1 0 0.25  1.25 0 0.25  1.5 0 0.25  1.75 0 0.25  2 0 0.25  2.25 0 0.25  2.5 0 0.25  2.75 0 0.25  3 0 0.25  3.25 0 0.25  3.5 0 0.25  3.75 0 0.25  4 0 0.25  4.25 0 0.25  4.5 0 0.25  4.75 0 0.25  5 0 0.25  5.25 0 0.25  5.5 0 0.25  5.75 0 0.25  6 0 0.25  6.25 0 0.25  6.5 0 0.25  6.75 0 0.25  7 0 0.25  7.25 0 0.25  7.5 0 0.25  7.75 0 0.25  8 0 0.25  8.25 0 0.25  8.5 0 0.25  8.75 0 0.25  9 0 0.25  9.25 0 0.25  9.5 0 0.25  9.75 0 0.25  10 0 0.25  0 0.25 0.25  0.25 0.25 0.25  0.5 0.25 0.25  0.75 0.25 0.25  1 0.25 0.25  1.25 0.25 0.25  1.5 0.25 0.25  1.75 0.25 0.25  2 0.25 0.25  2.25 0.25 0.25  2.5 0.25 0.25  2.75 0.25 0.25  3 0.25 0.25  3.25 0.25 0.25  3.5 0.25 0.25  3.75 0.25 0.25  4 0.25 0.25  4.25 0.25 0.25  4.5 0.25 0.25  4.75 0.25 0.25  5 0.25 0.25  5.25 0.25 0.25  5.5 0.25 0.25  5.75 0.25 0.25  6 0.25 0.25  6.25 0.25 0.25  6.5 0.25 0.25  6.75 0.25 0.25  7 0.25 0.25  7.25 0.25 0.25  7.5 0.25 0.25  7.75 0.25 0.25  8 0.25 0.25  8.25 0.25 0.25  8.5 0.25 0.25  8.75 0.25 0.25  9 0.25 0.25  9.25 0.25 0.25  9.5 0.25 0.25  9.75 0.25 0.25  10 0.25 0.25  0 0.5 0.25  0.25 0.5 0.25  0.5 0.5 0.25  0.75 0.5 0.25  1 0.5 0.25  1.25 0.5 0.25  1.5 0.5 0.25  1.75 0.5 0.25  2 0.5 0.25  2.25 0.5 0.25  2.5 0.5 0.25  2.75 0.5 0.25  3 0.5 0.25  3.25 0.5 0.25  3.5 0.5 0.25  3.75 0.5 0.25  4 0.5 0.25  4.25 0.5 0.25  4.5 0.5 0.25  4.75 0.5 0.25  5 0.5 0.25  5.25 0.5 0.25  5.5 0.5 0.25  5.75 0.5 0.25  6 0.5 0.25  6.25 0.5 0.25  6.5 0.5 0.25  6.75 0.5 0.25  7 0.5 0.25  7.25 0.5 0.25  7.5 0.5 0.25  7.75 0.5 0.25  8 0.5 0.25  8.25 0.5 0.25  8.5 0.5 0.25  8.75 0.5 0.25  9 0.5 0.25  9.25 0.5 0.25  9.5 0.5 0.25  9.75 0.5 0.25  10 0.5 0.25  0 0.75 0.25  0.25 0.75 0.25  0.5 0.75 0.25  0.75 0.75 0.25  1 0.75 0.25  1.25 0.75 0.25  1.5 0.75 0.25  1.75 0.75 0.25  2 0.75 0.25  2.25 0.75 0.25  2.5 0.75 0.25  2.75 0.75 0.25  3 0.75 0.25  3.25 0.75 0.25  3.5 0.75 0.25  3.75 0.75 0.25  4 0.75 0.25  4.25 0.75 0.25  4.5 0.75 0.25  4.75 0.75 0.25  5 0.75 0.25  5.25 0.75 0.25  5.5 0.75 0.25  5.75 0.75 0.25  6 0.75 0.25  6.25 0.75 0.25  6.5 0.75 0.25  6.75 0.75 0.25  7 0.75 0.25  7.25 0.75 0.25  7.5 0.75 0.25  7.75 0.75 0.25  8 0.75 0.25  8.25 0.75 0.25  8.5 0.75 0.25  8.75 0.75 0.25  9 0.75 0.25  9.25 0.75 0.25  9.5 0.75 0.25  9.75 0.75 0.25  10 0.75 0.25  0 1 0.25  0.25 1 0.25  0.5 1 0.25  0.75 1 0.25  1 1 0.25  1.25 1 0.25  1.5 1 0.25  1.75 1 0.25  2 1 0.25  2.25 1 0.25  2.5 1 0.25  2.75 1 0.25  3 1 0.25  3.25 1 0.25  3.5 1 0.25  3.75 1 0.25  4 1 0.25  4.25 1 0.25  4.5 1 0.25  4.75 1 0.25  5 1 0.25  5.25 1 0.25  5.5 1 0.25  5.75 1 0.25  6 1 0.25  6.25 1 0.25  6.5 1 0.25  6.75 1 0.25  7 1 0.25  7.25 1 0.25  7.5 1 0.25  7.75 1 0.25  8 1 0.25  8.25 1 0.25  8.5 1 0.25  8.75 1 0.25  9 1 0.25  9.25 1 0.25  9.5 1 0.25  9.75 1 0.25  10 1 0.25  0 0 0.5  0.25 0 0.5  0.5 0 0.5  0.75 0 0.5  1 0 0.5  1.25 0 0.5  1.5 0 0.5  1.75 0 0.5  2 0 0.5  2.25 0 0.5  2.5 0 0.5  2.75 0 0.5  3 0 0.5  3.25 0 0.5  3.5 0 0.5  3.75 0 0.5  4 0 0.5  4.25 0 0.5  4.5 0 0.5  4.75 0 0.5  5 0 0.5  5.25 0 0.5  5.5 0 0.5  5.75 0 0.5  6 0 0.5  6.25 0 0.5  6.5 0 0.5  6.75 0 0.5  7 0 0.5  7.25 0 0.5  7.5 0 0.5  7.75 0 0.5  8 0 0.5  8.25 0 0.5  8.5 0 0.5  8.75 0 0.5  9 0 0.5  9.25 0 0.5  9.5 0 0.5  9.75 0 0.5  10 0 0.5  0 0.25 0.5  0.25 0.25 0.5  0.5 0.25 0.5  0.75 0.25 0.5  1 0.25 0.5  1.25 0.25 0.5  1.5 0.25 0.5  1.75 0.25 0.5  2 0.25 0.5  2.25 0.25 0.5  2.5 0.25 0.5  2.75 0.25 0.5  3 0.25 0.5  3.25 0.25 0.5  3.5 0.25 0.5  3.75 0.25 0.5  4 0.25 0.5  4.25 0.25 0.5  4.5 0.25 0.5  4.75 0.25 0.5  5 0.25 0.5  5.25 0.25 0.5  5.5 0.25 0.5  5.75 0.25 0.5  6 0.25 0.5  6.25 0.25 0.5  6.5 0.25 0.5  6.75 0.25 0.5  7 0.25 0.5  7.25 0.25 0.5  7.5 0.25 0.5  7.75 0.25 0.5  8 0.25 0.5  8.25 0.25 0.5  8.5 0.25 0.5  8.75 0.25 0.5  9 0.25 0.5  9.25 0.25 0.5  9.5 0.25 0.5  9.75 0.25 0.5  10 0.25 0.5  0 0.5 0.5  0.25 0.5 0.5  0.5 0.5 0.5  0.75 0.5 0.5  1 0.5 0.5  1.25 0.5 0.5  1.5 0.5 0.5  1.75 0.5 0.5  2 0.5 0.5  2.25 0.5 0.5  2.5 0.5 0.5  2.75 0.5 0.5  3 0.5 0.5  3.25 0.5 0.5  3.5 0.5 0.5  3.75 0.5 0.5  4 0.5 0.5  4.25 0.5 0.5  4.5 0.5 0.5  4.75 0.5 0.5  5 0.5 0.5  5.25 0.5 0.5  5.5 0.5 0.5  5.75 0.5 0.5  6 0.5 0.5  6.25 0.5 0.5  6.5 0.5 0.5  6.75 0.5 0.5  7 0.5 0.5  7.25 0.5 0.5  7.5 0.5 0.5  7.75 0.5 0.5  8 0.5 0.5  8.25 0.5 0.5  8.5 0.5 0.5  8.75 0.5 0.5  9 0.5 0.5  9.25 0.5 0.5  9.5 0.5 0.5  9.75 0.5 0.5  10 0.5 0.5  0 0.75 0.5  0.25 0.75 0.5  0.5 0.75 0.5  0.75 0.75 0.5  1 0.75 0.5  1.25 0.75 0.5  1.5 0.75 0.5  1.75 0.75 0.5  2 0.75 0.5  2.25 0.75 0.5  2.5 0.75 0.5  2.75 0.75 0.5  3 0.75 0.5  3.25 0.75 0.5  3.5 0.75 0.5  3.75 0.75 0.5  4 0.75 0.5  4.25 0.75 0.5  4.5 0.75 0.5  4.75 0.75 0.5  5 0.75 0.5  5.25 0.75 0.5  5.5 0.75 0.5  5.75 0.75 0.5  6 0.75 0.5  6.25 0.75 0.5  6.5 0.75 0.5  6.75 0.75 0.5  7 0.75 0.5  7.25 0.75 0.5  7.5 0.75 0.5  7.75 0.75 0.5  8 0.75 0.5  8.25 0.75 0.5  8.5 0.75 0.5  8.75 0.75 0.5  9 0.75 0.5  9.25 0.75 0.5  9.5 0.75 0.5  9.75 0.75 0.5  10 0.75 0.5  0 1 0.5  0.25 1 0.5  0.5 1 0.5  0.75 1 0.5  1 1 0.5  1.25 1 0.5  1.5 1 0.5  1.75 1 0.5  2 1 0.5  2.25 1 0.5  2.5 1 0.5  2.75 1 0.5  3 1 0.5  3.25 1 0.5  3.5 1 0.5  3.75 1 0.5  4 1 0.5  4.25 1 0.5  4.5 1 0.5  4.75 1 0.5  5 1 0.5  5.25 1 0.5  5.5 1 0.5  5.75 1 0.5  6 1 0.5  6.25 1 0.5  6.5 1 0.5  6.75 1 0.5  7 1 0.5  7.25 1 0.5  7.5 1 0.5  7.75 1 0.5  8 1 0.5  8.25 1 0.5  8.5 1 0.5  8.75 1 0.5  9 1 0.5  9.25 1 0.5  9.5 1 0.5  9.75 1 0.5  10 1 0.5  0 0 0.75  0.25 0 0.75  0.5 0 0.75  0.75 0 0.75  1 0 0.75  1.25 0 0.75  1.5 0 0.75  1.75 0 0.75  2 0 0.75  2.25 0 0.75  2.5 0 0.75  2.75 0 0.75  3 0 0.75  3.25 0 0.75  3.5 0 0.75  3.75 0 0.75  4 0 0.75  4.25 0 0.75  4.5 0 0.75  4.75 0 0.75  5 0 0.75  5.25 0 0.75  5.5 0 0.75  5.75 0 0.75  6 0 0.75  6.25 0 0.75  6.5 0 0.75  6.75 0 0.75  7 0 0.75  7.25 0 0.75  7.5 0 0.75  7.75 0 0.75  8 0 0.75  8.25 0 0.75  8.5 0 0.75  8.75 0 0.75  9 0 0.75  9.25 0 0.75  9.5 0 0.75  9.75 0 0.75  10 0 0.75  0 0.25 0.75  0.25 0.25 0.75  0.5 0.25 0.75  0.75 0.25 0.75  1 0.25 0.75  1.25 0.25 0.75  1.5 0.25 0.75  1.75 0.25 0.75  2 0.25 0.75  2.25 0.25 0.75  2.5 0.25 0.75  2.75 0.25 0.75  3 0.25 0.75  3.25 0.25 0.75  3.5 0.25 0.75  3.75 0.25 0.75  4 0.25 0.75  4.25 0.25 0.75  4.5 0.25 0.75  4.75 0.25 0.75  5 0.25 0.75  5.25 0.25 0.75  5.5 0.25 0.75  5.75 0.25 0.75  6 0.25 0.75  6.25 0.25 0.75  6.5 0.25 0.75  6.75 0.25 0.75  7 0.25 0.75  7.25 0.25 0.75  7.5 0.25 0.75  7.75 0.25 0.75  8 0.25 0.75  8.25 0.25 0.75  8.5 0.25 0.75  8.75 0.25 0.75  9 0.25 0.75  9.25 0.25 0.75  9.5 0.25 0.75  9.75 0.25 0.75  10 0.25 0.75  0 0.5 0.75  0.25 0.5 0.75  0.5 0.5 0.75  0.75 0.5 0.75  1 0.5 0.75  1.25 0.5 0.75  1.5 0.5 0.75  1.75 0.5 0.75  2 0.5 0.75  2.25 0.5 0.75  2.5 0.5 0.75  2.75 0.5 0.75  3 0.5 0.75  3.25 0.5 0.75  3.5 0.5 0.75  3.75 0.5 0.75  4 0.5 0.75  4.25 0.5 0.75  4.5 0.5 0.75  4.75 0.5 0.75  5 0.5 0.75  5.25 0.5 0.75  5.5 0.5 0.75  5.75 0.5 0.75  6 0.5 0.75  6.25 0.5 0.75  6.5 0.5 0.75  6.75 0.5 0.75  7 0.5 0.75  7.25 0.5 0.75  7.5 0.5 0.75  7.75 0.5 0.75  8 0.5 0.75  8.25 0.5 0.75  8.5 0.5 0.75  8.75 0.5 0.75  9 0.5 0.75  9.25 0.5 0.75  9.5 0.5 0.75  9.75 0.5 0.75  10 0.5 0.75  0 0.75 0.75  0.25 0.75 0.75  0.5 0.75 0.75  0.75 0.75 0.75  1 0.75 0.75  1.25 0.75 0.75  1.5 0.75 0.75  1.75 0.75 0.75  2 0.75 0.75  2.25 0.75 0.75  2.5 0.75 0.75  2.75 0.75 0.75  3 0.75 0.75  3.25 0.75 0.75  3.5 0.75 0.75  3.75 0.75 0.75  4 0.75 0.75  4.25 0.75 0.75  4.5 0.75 0.75  4.75 0.75 0.75  5 0.75 0.75  5.25 0.75 0.75  5.5 0.75 0.75  5.75 0.75 0.75  6 0.75 0.75  6.25 0.75 0.75  6.5 0.75 0.75  6.75 0.75 0.75  7 0.75 0.75  7.25 0.75 0.75  7.5 0.75 0.75  7.75 0.75 0.75  8 0.75 0.75  8.25 0.75 0.75  8.5 0.75 0.75  8.75 0.75 0.75  9 0.75 0.75  9.25 0.75 0.75  9.5 
[...]
<PointData  Vectors="f_115"> 
<DataArray  type="Float64"  Name="f_115"  NumberOfComponents="3" format="ascii">-1.9993559931040390e-07 0.0000000000000000e+00 0.0000000000000000e+00  -3.2623965482202901e-07 0.0000000000000000e+00 -2.9570341023385882e-07  -6.5100200362088675e-07 0.0000000000000000e+00 -7.9075321203455832e-07  -1.3854734115582052e-06 0.0000000000000000e+00 -1.7864667236934331e-06  -2.9988732434095089e-06 0.0000000000000000e+00 -3.9090634388524160e-06  -6.5278878618930172e-06 0.0000000000000000e+00 -8.5017683185405308e-06  -1.4265943169100308e-05 0.0000000000000000e+00 -1.8485942929474447e-05  -3.1324851562736369e-05 0.0000000000000000e+00 -4.0256142885926861e-05  -6.9236062832578088e-05 0.0000000000000000e+00 -8.7892665885559425e-05  -1.5447353863060444e-04 6.1062265986091432e-16 -1.9264185161792116e-04  -3.4942391182264524e-04 9.3591800411409213e-14 -4.2464317753729416e-04  -8.0733459333140055e-04 1.3887946264725757e-11 -9.4422287628861403e-04  -1.9327199841315101e-03 2.0611536242249148e-09 -2.1298246099259103e-03  -4.9385783679389474e-03 3.0590222509302394e-07 -4.9357623255918736e-03  -1.3590994545639407e-02 4.5397868428632262e-05 -1.2160315811196658e-02  1.4797771029871176e-01 6.6928508839174490e-03 -3.4826638641808613e-02  3.7645189500272203e-01 4.9999999698429010e-01 2.3509686691775444e-02  9.3418562879209466e-03 9.9330714308466272e-01 5.0467713167948736e-03  3.7963140822008246e-03 9.9995459610005855e-01 2.9894660944288498e-03  4.1491336728445294e-03 9.9999968805246786e-01 2.4053811921579404e-03  5.3400298562316095e-03 9.9999998984627336e-01 2.8595005564734377e-03  8.3795998456888121e-03 9.9999968805246786e-01 5.2268125083098083e-03  1.7100570184706232e-02 9.9995459610005855e-01 1.2193446626654780e-02  -1.4406972792931516e-01 9.9330714308466272e-01 3.4892760640921949e-02  -3.7282365588365723e-01 4.9999999698429010e-01 -2.2783865442845330e-02  -5.4330744227927613e-03 6.6928508839174490e-03 -4.9494616828542641e-03  2.9767632150810505e-04 4.5397868428632262e-05 -2.7250559956441974e-03  3.6096618494245144e-04 3.0590222509302394e-07 -1.6069999433458663e-03  2.3860914446755812e-04 2.0611536242249148e-09 -8.6722587065253141e-04  1.3779874108825420e-04 1.3887946264725757e-11 -4.5009312827976598e-04  7.4652641172658399e-05 9.3591800411409213e-14 -2.2820107924429031e-04  3.8945559580191551e-05 6.1062265986091432e-16 -1.1386645933931856e-04  1.9822079126720314e-05 0.0000000000000000e+00 -5.6166673607242743e-05  9.9177962565395652e-06 0.0000000000000000e+00 -2.7469986438533763e-05  4.9021700420672932e-06 0.0000000000000000e+00 -1.3348206841640143e-05  2.4025965015663122e-06 0.0000000000000000e+00 -6.4525289605136015e-06  1.1727350546553127e-06 0.0000000000000000e+00 -3.1031765255989705e-06  5.7641518361484408e-07 0.0000000000000000e+00 -1.4788180862513355e-06  2.9727817171456087e-07 0.0000000000000000e+00 -6.8304431304001181e-07  1.8606242778301809e-07 0.0000000000000000e+00 -2.7045090834243647e-07  0.0000000000000000e+00 0.0000000000000000e+00 0.0000000000000000e+00  -2.1877399810433767e-07 0.0000000000000000e+00 0.0000000000000000e+00  -3.5195932042068352e-07 0.0000000000000000e+00 -3.2146117503616761e-07  -7.0034354328270675e-07 0.0000000000000000e+00 -8.5326067314234718e-07  -1.4867836528785209e-06 0.0000000000000000e+00 -1.9178998446862925e-06  -3.2133514541570762e-06 0.0000000000000000e+00 -4.1759116953179947e-06  -6.9918594849413051e-06 0.0000000000000000e+00 -9.0415039413636147e-06  -1.5296552323930126e-05 0.0000000000000000e+00 -1.9588177386395763e-05  -3.3693289558440794e-05 0.0000000000000000e+00 -4.2556537891413048e-05  -7.4906891654701914e-05 0.0000000000000000e+00 -9.2868151517601762e-05  -1.6866851330767422e-04 6.1062265986091432e-16 -2.0395790742767895e-04  -3.8644633395036577e-04 9.3591800411409213e-14 -4.5199362953606231e-04  -9.0654730862831318e-04 1.3887946264725757e-11 -1.0145115781802583e-03  -2.1968560283090266e-03 2.0611536242249148e-09 -2.3191105256785247e-03  -5.5773865823008986e-03 3.0590222509302394e-07 -5.4496385020086245e-03  -1.4526281426581526e-02 4.5397868428632262e-05 -1.3421761576678020e-02  1.5158363713103623e-01 6.6928508839174490e-03 -3.6294817165212441e-02  3.7132116034880336e-01 4.9999999698429010e-01 2.9055792161656768e-02  8.5312663775313213e-03 9.9330714308466272e-01 1.2196451844127543e-03  2.6222648367306700e-03 9.9995459610005855e-01 7.9226511455632309e-04  2.5961919699879488e-03 9.9999968805246786e-01 1.2153791061036978e-03  3.7315381025275762e-03 9.9999998984627336e-01 2.1920008694643611e-03  7.0402378158263001e-03 9.9999968805246786e-01 5.0293866784928420e-03  1.6003129159341434e-02 9.9995459610005855e-01 1.2798151556309034e-02  -1.4977037845488750e-01 9.9330714308466272e-01 3.5777331955272551e-02  -3.6952874610528763e-01 4.9999999698429010e-01 -2.8711676656675011e-02  -6.4884212040439582e-03 6.6928508839174490e-03 -1.7677428398982379e-03  -4.0954905341594890e-04 4.5397868428632262e-05 -1.1623415910789509e-03  6.1309107175370635e-05 3.0590222509302394e-07 -9.9287082212747187e-04  1.2828955969446652e-04 2.0611536242249148e-09 -6.4692878364795768e-04  1.0009326745217623e-04 1.3887946264725757e-11 -3.7548976347105689e-04  6.2632589280924315e-05 9.3591800411409213e-14 -2.0453685386189363e-04  3.5501994447220057e-05 6.1062265986091432e-16 -1.0716110071212499e-04  1.9048117616028189e-05 0.0000000000000000e+00 -5.4729759198831308e-05  9.8776701520734357e-06 0.0000000000000000e+00 -2.7466374654785603e-05  5.0081343013824000e-06 0.0000000000000000e+00 -1.3612968325024359e-05  2.5011011196530861e-06 0.0000000000000000e+00 -6.6840433369475168e-06  1.2385290356440907e-06 0.0000000000000000e+00 -3.2552915426456255e-06  6.1585934270625470e-07 0.0000000000000000e+00 -1.5672190276325575e-06  3.2084599925656147e-07 0.0000000000000000e+00 -7.2937709019207570e-07  2.0209492521763578e-07 0.0000000000000000e+00 -2.8943780270011894e-07  0.0000000000000000e+00 0.0000000000000000e+00 0.0000000000000000e+00  -2.1486431380074451e-07 0.0000000000000000e+00 0.0000000000000000e+00  -3.4257965725284703e-07 0.0000000000000000e+00 -3.2331093314250466e-07  -6.7838078274202860e-07 0.0000000000000000e+00 -8.5791313132696770e-07  -1.4391887044214690e-06 0.0000000000000000e+00 -1.9277649678820633e-06  -3.1094924709212852e-06 0.0000000000000000e+00 -4.1965440336446178e-06  -6.7614664111236158e-06 0.0000000000000000e+00 -9.0828468544784885e-06  -1.4772137428228662e-05 0.0000000000000000e+00 -1.9665427006709392e-05  -3.2459288358667919e-05 0.0000000000000000e+00 -4.2680920023698513e-05  -7.1891391262445437e-05 0.0000000000000000e+00 -9.2991341127659192e-05  -1.6102131159286397e-04 6.1062265986091432e-16 -2.0373635990620316e-04  -3.6650468147185797e-04 9.3591800411409213e-14 -4.4991099083763409e-04  -8.5430154218325014e-04 1.3887946264725757e-11 -1.0048441637355351e-03  -2.0666354548821743e-03 2.0611536242249148e-09 -2.2821170385349883e-03  -5.3173632252038194e-03 3.0590222509302394e-07 -5.3233384481491215e-03  -1.4521955726039827e-02 4.5397868428632262e-05 -1.3048162662761098e-02  1.4696946803218486e-01 6.6928508839174490e-03 -3.5588282442706773e-02  3.7100702364712712e-01 4.9999999698429010e-01 2.6842982083619238e-02  4.2588453818626082e-03 9.9330714308466272e-01 1.9279000793306356e-03  -2.1098776504997474e-03 9.9995459610005855e-01 1.5900255769255578e-03  -2.0503987357697318e-03 9.9999968805246786e-01 1.7647070351364258e-03  -8.8286350262412050e-04 9.9999998984627336e-01 2.5715958532063210e-03  2.3493121406954476e-03 9.9999968805246786e-01 5.2658978921226174e-03  1.1527791769926354e-02 9.9995459610005855e-01 1.2772431540908236e-02  -1.4978651189512837e-01 9.9330714308466272e-01 3.5354344039850272e-02  -3.7345938675451473e-01 4.9999999698429010e-01 -2.6405383449465691e-02  -6.6044360390000905e-03 6.6928508839174490e-03 -2.2164290856524771e-03  -1.1885643549042657e-04 4.5397868428632262e-05 -1.6574473715232903e-03  2.3739001549372943e-04 3.0590222509302394e-07 -1.2457001622736990e-03  2.0855988478402012e-04 2.0611536242249148e-09 -7.5685376202017736e-04  1.3364401144838985e-04 1.3887946264725757e-11 -4.2067514567591514e-04  7.6191763726515165e-05 9.3591800411409213e-14 -2.2268964009796853e-04  4.0904877261978962e-05 6.1062265986091432e-16 -1.1438205427810278e-04  2.1188689643456363e-05 0.0000000000000000e+00 -5.7591277469364066e-05  1.0724379177525960e-05 0.0000000000000000e+00 -2.8599955596809593e-05  5.3432564866585411e-06 0.0000000000000000e+00 -1.4062956550459967e-05  2.6339605938335865e-06 0.0000000000000000e+00 -6.8633702261057711e-06  1.2912513017681633e-06 0.0000000000000000e+00 -3.3271163665335496e-06  6.3667621403026288e-07 0.0000000000000000e+00 -1.5960753551810145e-06  3.2887690271678003e-07 0.0000000000000000e+00 -7.4078081989016476e-07  2.0532389012096638e-07 0.0000000000000000e+00 -2.9333018370785074e-07  0.0000000000000000e+00 0.0000000000000000e+00 0.0000000000000000e+00  -1.9334243944213120e-07 0.0000000000000000e+00 0.0000000000000000e+00  -3.0944846917814962e-07 0.0000000000000000e+00 -3.0285982221183573e-07  -6.1495925234818807e-07 0.0000000000000000e+00 -8.0809880923306817e-07  -1.3081676663405549e-06 0.0000000000000000e+00 -1.8244563703160292e-06  -2.8306691070003250e-06 0.0000000000000000e+00 -3.9892825749232589e-06  -6.1499726134647221e-06 0.0000000000000000e+00 -8.6667123268790715e-06  -1.3380510728026105e-05 0.0000000000000000e+00 -1.8811091755142872e-05  -2.9142029740793988e-05 0.0000000000000000e+00 -4.0848925068780312e-05  -6.3552106651955771e-05 0.0000000000000000e+00 -8.8797637588279804e-05  -1.3886815012311937e-04 6.1062265986091432e-16 -1.9333004462806166e-04  -3.0448742271944521e-04 9.3591800411409213e-14 -4.2188981324392446e-04  -6.7224925015390560e-04 1.3887946264725757e-11 -9.2404597482851714e-04  -1.5086181507068929e-03 2.0611536242249148e-09 -2.0375542530271726e-03  -3.5409560206422991e-03 3.0590222509302394e-07 -4.5608454376063080e-03  -9.4493014630396589e-03 4.5397868428632262e-05 -1.0639697943072424e-02  1.2329716559932813e-01 6.6928508839174490e-03 -2.8688629244008310e-02  3.9265458802539777e-01 4.9999999698429010e-01 8.6598777914118630e-03  -8.2838342401414522e-05 9.9330714308466272e-01 1.0024129887002076e-02  -4.5497819001747430e-03 9.9995459610005855e-01 6.1933845764673423e-03  -3.3328646417678520e-03 9.9999968805246786e-01 4.3416802772798802e-03  -2.0303969130985866e-03 9.9999998984627336e-01 4.2429783890015615e-03  2.2378704228587232e-04 9.9999968805246786e-01 6.1746716035450122e-03  6.2091904185654911e-03 9.9995459610005855e-01 1.1984137573513798e-02  -1.2703643450089308e-01 9.9330714308466272e-01 2.9990234220329981e-02  -3.9516068758784978e-01 4.9999999698429010e-01 -7.4817333084604698e-03  -2.7270090957119504e-03 6.6928508839174490e-03 -8.8722008536908023e-03  1.8033626544820603e-03 4.5397868428632262e-05 -4.7512887247490579e-03  9.3283946872140455e-04 3.0590222509302394e-07 -2.3891144549706626e-03  4.5688856596958741e-04 2.0611536242249148e-09 -1.1712960648469616e-03  2.2202324345066502e-04 1.3887946264725757e-11 -5.6957961349642149e-04  1.0730841594385818e-04 9.3591800411409213e-14 -2.7542590575849467e-04  5.1622062403094913e-05 6.1062265986091432e-16 -1.3259380737655694e-04  2.4741386928023278e-05 0.0000000000000000e+00 -6.3615430628662700e-05  1.1825288074274453e-05 0.0000000000000000e+00 -3.0443817364854039e-05  5.6410821894871860e-06 0.0000000000000000e+00 -1.4541386818858083e-05  2.6884234763884328e-06 0.0000000000000000e+00 -6.9342743279914720e-06  1.2829499492783552e-06 0.0000000000000000e+00 -3.2990465018280981e-06  6.1847986494083719e-07 0.0000000000000000e+00 -1.5588008979225330e-06  3.1270259154756844e-07 0.0000000000000000e+00 -7.1512995949130620e-07  1.9110902959425780e-07 0.0000000000000000e+00 -2.8139593236810462e-07  0.0000000000000000e+00 0.0000000000000000e+00 0.0000000000000000e+00  0.0000000000000000e+00 0.0000000000000000e+00 0.0000000000000000e+00  0.0000000000000000e+00 0.0000000000000000e+00 0.0000000000000000e+00  0.0000000000000000e+00 0.0000000000000000e+00 0.0000000000000000e+00  0.0000000000000000e+00 0.0000000000000000e+00 0.0000000000000000e+00  0.0000000000000000e+00 0.0000000000000000e+00 0.0000000000000000e+00  0.0000000000000000e+00 0.0000000000000000e+00 0.0000000000000000e+00  0.0000000000000000e+00 0.0000000000000000e+00 0.0000000000000000e+00  0.0000000000000000e+00 0.0000000000000000e+00 0.0000000000000000e+00  0.0000000000000000e+00 0.0000000000000000e+00 0.0000000000000000e+00  0.0000000000000000e+00 6.1062265986091432e-16 0.0000000000000000e+00  0.0000000000000000e+00 9.3591800411409213e-14 0.0000000000000000e+00  0.0000000000000000e+00 1.3887946264725757e-11 0.0000000000000000e+00  0.0000000000000000e+00 2.0611536242249148e-09 0.0000000000000000e+00  0.0000000000000000e+00 3.0590222509302394e-07 0.0000000000000000e+00  0.0000000000000000e+00 4.5397868428632262e-05 0.0000000000000000e+00  0.0000000000000000e+00 6.6928508839174490e-03 0.0000000000000000e+00  0.0000000000000000e+00 4.9999999698429010e-01 0.0000000000000000e+00  0.0000000000000000e+00 9.9330714308466272e-01 0.0000000000000000e+00  0.0000000000000000e+00 9.9995459610005855e-01 0.0000000000000000e+00  0.0000000000000000e+00 9.9999968805246786e-01 0.0000000000000000e+00  0.0000000000000000e+00 9.9999998984627336e-01 0.0000000000000000e+00  0.0000000000000000e+00 9.9999968805246786e-01 0.0000000000000000e+00  0.0000000000000000e+00 9.9995459610005855e-01 0.0000000000000000e+00  0.0000000000000000e+00 9.9330714308466272e-01 0.0000000000000000e+00  0.0000000000000000e+00 4.9999999698429010e-01 0.0000000000000000e+00  0.0000000000000000e+00 6.6928508839174490e-03 0.0000000000000000e+00  0.0000000000000000e+00 4.5397868428632262e-05 0.0000000000000000e+00  0.0000000000000000e+00 3.0590222509302394e-07 0.0000000000000000e+00  0.0000000000000000e+00 2.0611536242249148e-09 0.0000000000000000e+00  0.0000000000000000e+00 1.3887946264725757e-11 0.0000000000000000e+00  0.0000000000000000e+00 9.3591800411409213e-14 0.0000000000000000e+00  0.0000000000000000e+00 6.1062265986091432e-16 0.0000000000000000e+00  0.0000000000000000e+00 0.0000000000000000e+00 0.0000000000000000e+00  0.0000000000000000e+00 0.0000000000000000e+00 0.0000000000000000e+00  0.0000000000000000e+00 0.0000000000000000e+00 0.0000000000000000e+00  0.0000000000000000e+00 0.0000000000000000e+00 0.0000000000000000e+00  0.0000000000000000e+00 0.0000000000000000e+00 0.0000000000000000e+00  0.0000000000000000e+00 0.0000000000000000e+00 0.0000000000000000e+00  0.0000000000000000e+00 0.0000000000000000e+00 0.0000000000000000e+00  0.0000000000000000e+00 0.0000000000000000e+00 0.0000000000000000e+00  0.0000000000000000e+00 0.0000000000000000e+00 0.0000000000000000e+00  -3.7076479829315610e-07 0.0000000000000000e+00 0.0000000000000000e+00  -5.8830850991267990e-07 -5.6845694050627934e-07 -1.5845186849307719e-07  -1.1729606989285768e-06 -1.5001988541334108e-06 -4.2391072736551730e-07  -2.4995295366249985e-06 -3.3897545073874629e-06 -9.5396431658514332e-07  -5.4137319353562475e-06 -7.4391421970639367e-06 -2.0775171824872319e-06  -1.1781844446361698e-05 -1.6229628936793247e-05 -4.4947745151602160e-06  -2.5712243343852725e-05 -3.5375867567234828e-05 -9.7170586583409022e-06  -5.6284297691598591e-05 -7.7137975061387280e-05 -2.1022706702716491e-05  -1.2369901364845680e-04 -1.6835809780009389e-04 -4.5545225659180576e-05  -2.7329371697208167e-04 -3.6799734092224969e-04 -9.8842921936401922e-05  -6.0781120608855766e-04 -8.0622075439232515e-04 -2.1484624111964669e-04  -1.3619732288134628e-03 -1.7727882707032996e-03 -4.6691857688418168e-04  -3.0711595033963753e-03 -3.9222931002196653e-03 -1.0079565188521192e-03  -6.9074718272821023e-03 -8.7735518817383586e-03 -2.1141981809810247e-03  -1.4195776038369964e-02 -1.9979366111501560e-02 -3.9635394456592268e-03  1.7481050615522070e-01 -4.1393664571109476e-02 -3.2794815197981844e-03  3.6399929395371355e-01 5.0515520944153580e-01 7.2220023389102384e-04  1.1518296843068709e-02 1.0153540591714978e+00 -3.1838496094340751e-03  6.8356963659441661e-03 1.0083918276851080e+00 1.1877403462028369e-03  8.0971296957685901e-03 1.0050410031786974e+00 1.0480314184388995e-03  1.0181110729160503e-02 1.0051622270683034e+00 1.1527788243654857e-03  1.4189372192294547e-02 1.0090060388625739e+00 2.0057096036951716e-03  2.1606183701031734e-02 1.0197084067467588e+00 3.7254030540556649e-03  -1.6700551911560679e-01 1.0410491455586568e+00 3.0467266443123808e-03  -3.5616423982811418e-01 4.9518880375291663e-01 -8.1381379653611141e-04  -3.3661164609453259e-03 -1.5668284023459669e-02 2.9571122312973853e-03  1.6078174925394789e-03 -8.3205539483586274e-03 -1.3348249197166293e-03  1.0279962968184949e-03 -3.9776480250253944e-03 -9.4627700333689731e-04  5.6745302825984899e-04 -1.9352464020410828e-03 -5.0721544045377186e-04  2.9855269998967581e-04 -9.4111595262601688e-04 -2.5737404768502335e-04  1.5289235121024747e-04 -4.5577841211472722e-04 -1.2815987302537528e-04  7.6879661451975732e-05 -2.1980810589329497e-04 -6.3174790864372162e-05  3.8146927970638073e-05 -1.0562850328341401e-04 -3.0922341666074393e-05  1.8740375267143450e-05 -5.0610894966586597e-05 -1.5053678679366666e-05  9.1377870807230736e-06 -2.4190900592117158e-05 -7.2967175238045281e-06  4.4321067561310002e-06 -1.1537133878673391e-05 -3.5237750804500357e-06  2.1456529236027733e-06 -5.4860079750946249e-06 -1.6948379488439162e-06  1.0474181123069808e-06 -2.5883241610562745e-06 -8.0843798476595993e-07  5.3645848050282165e-07 -1.1827842700322354e-06 -3.7415812762997926e-07  3.3096759259283201e-07 -4.5908963675164155e-07 -1.4903700120133490e-07  0.0000000000000000e+00 0.0000000000000000e+00 0.0000000000000000e+00  -3.7614368938120688e-07 0.0000000000000000e+00 0.0000000000000000e+00  -5.9444297783620333e-07 -5.6121886940948269e-07 -1.8231416755294657e-07  -1.1840356077920272e-06 -1.4843140035444368e-06 -4.8179538170470331e-07  -2.5197571405269883e-06 -3.3569237694021125e-06 -1.0742292479329637e-06  -5.4530593775425829e-06 -7.3677987793659571e-06 -2.3162476998687944e-06  -1.1867361992336771e-05 -1.6070858471558404e-05 -4.9616103894139352e-06  -2.5927433593689305e-05 -3.5014151237677886e-05 -1.0623815588181534e-05  -5.6905478620629550e-05 -7.6290646570585622e-05 -2.2782069322333924e-05  -1.2565607930457487e-04 -1.6630566486288054e-04 -4.8982752550454637e-05  -2.7968033006860990e-04 -3.6283370074337176e-04 -1.0569176866987226e-04  -6.2861982499274401e-04 -7.9269473352183500e-04 -2.2900083812875361e-04  -1.4278852888838229e-03 -1.7358418094100068e-03 -4.9776356546037538e-04  -3.2677192037841177e-03 -3.8166904912205766e-03 -1.0789957695592992e-03  -7.4207648669339845e-03 -8.4552314035637142e-03 -2.2815385145243099e-03  -1.5059145450280888e-02 -1.8963654135629660e-02 -4.3206945520199991e-03  1.7711003931406219e-01 -3.8701483553180795e-02 -3.7036464873956149e-03  3.5891682866528485e-01 4.8902357394526380e-01 1.4797291986682892e-03  1.1443822631357348e-02 1.0192273754398993e+00 -3.3827437061246801e-03  5.4881765627148305e-03 1.0101991447554257e+00 6.6422407184485444e-04  5.9775523137743924e-03 1.0059521615518350e+00 8.2387078299817063e-04  7.8046596376475375e-03 1.0056939097533693e+00 1.1272747377100156e-03  1.1923254832232555e-02 1.0092236099899783e+00 2.1366337130133140e-03  1.9524594294390463e-02 1.0192104375409785e+00 4.0678363892465708e-03  -1.7243257006147539e-01 1.0388042859735347e+00 3.4967445229348026e-03  -3.5352792777014252e-01 5.1121194853455543e-01 -1.4941957877179224e-03  -5.7178866191243474e-03 -1.9063444259621351e-02 3.1671162824872257e-03  3.8269539263494773e-04 -9.6493542897742226e-03 -8.1278748237782403e-04  5.2110146550081015e-04 -4.4681081666392971e-03 -7.0334161969834268e-04  3.7458658872977771e-04 -2.1266300630458424e-03 -4.1881647545795190e-04  2.2812751736167309e-04 -1.0174588292014943e-03 -2.2946737115771233e-04  1.2788325141430064e-04 -4.8644980609210264e-04 -1.2092791117482689e-04  6.8241437107303369e-05 -2.3216737220415826e-04 -6.2190307593727073e-05  3.5271701212782468e-05 -1.1062467171775930e-04 -3.1443403855599953e-05  1.783844147