<?xml version="1.0"?>
<VTKFile type="UnstructuredGrid"  version="0.1"  >
<UnstructuredGrid>
<Piece  NumberOfPoints="1025" NumberOfCells="3840">
<Points>
<DataArray  type="Float64"  NumberOfComponents="3"  format="ascii">0 0 0  0.25 0 0  0.5 0 0  0.75 0 0  1 0 0  1.25 0 0  1.5 0 0  1.75 0 0  2 0 0  2.25 0 0  2.5 0 0  2.75 0 0  3 0 0  3.25 0 0  3.5 0 0  3.75 0 0  4 0 0  4.25 0 0  4.5 0 0  4.75 0 0  5 0 0  5.25 0 0  5.5 0 0  5.75 0 0  6 0 0  6.25 0 0  6.5 0 0  6.75 0 0  7 0 0  7.25 0 0  7.5 0 0  7.75 0 0  8 0 0  8.25 0 0  8.5 0 0  8.75 0 0  9 0 0  9.25 0 0  9.5 0 0  9.75 0 0  10 0 0  0 0.25 0  0.25 0.25 0  0.5 0.25 0  0.75 0.25 0  1 0.25 0  1.25 0.25 0  1.5 0.25 0  1.75 0.25 0  2 0.25 0  2.25 0.25 0  2.5 0.25 0  2.75 0.25 0  3 0.25 0  3.25 0.25 0  3.5 0.25 0  3.75 0.25 0  4 0.25 0  4.25 0.25 0  4.5 0.25 0  4.75 0.25 0  5 0.25 0  5.25 0.25 0  5.5 0.25 0  5.75 0.25 0  6 0.25 0  6.25 0.25 0  6.5 0.25 0  6.75 0.25 0  7 0.25 0  7.25 0.25 0  7.5 0.25 0  7.75 0.25 0  8 0.25 0  8.25 0.25 0  8.5 0.25 0  8.75 0.25 0  9 0.25 0  9.25 0.25 0  9.5 0.25 0  9.75 0.25 0  10 0.25 0  0 0.5 0  0.25 0.5 0  0.5 0.5 0  0.75 0.5 0  1 0.5 0  1.25 0.5 0  1.5 0.5 0  1.75 0.5 0  2 0.5 0  2.25 0.5 0  2.5 0.5 0  2.75 0.5 0  3 0.5 0  3.25 0.5 0  3.5 0.5 0  3.75 0.5 0  4 0.5 0  4.25 0.5 0  4.5 0.5 0  4.75 0.5 0  5 0.5 0  5.25 0.5 0  5.5 0.5 0  5.75 0.5 0  6 0.5 0  6.25 0.5 0  6.5 0.5 0  6.75 0.5 0  7 0.5 0  7.25 0.5 0  7.5 0.5 0  7.75 0.5 0  8 0.5 0  8.25 0.5 0  8.5 0.5 0  8.75 0.5 0  9 0.5 0  9.25 0.5 0  9.5 0.5 0  9.75 0.5 0  10 0.5 0  0 0.75 0  0.25 0.75 0  0.5 0.75 0  0.75 0.75 0  1 0.75 0  1.25 0.75 0  1.5 0.75 0  1.75 0.75 0  2 0.75 0  2.25 0.75 0  2.5 0.75 0  2.75 0.75 0  3 0.75 0  3.25 0.75 0  3.5 0.75 0  3.75 0.75 0  4 0.75 0  4.25 0.75 0  4.5 0.75 0  4.75 0.75 0  5 0.75 0  5.25 0.75 0  5.5 0.75 0  5.75 0.75 0  6 0.75 0  6.25 0.75 0  6.5 0.75 0  6.75 0.75 0  7 0.75 0  7.25 0.75 0  7.5 0.75 0  7.75 0.75 0  8 0.75 0  8.25 0.75 0  8.5 0.75 0  8.75 0.75 0  9 0.75 0  9.25 0.75 0  9.5 0.75 0  9.75 0.75 0  10 0.75 0  0 1 0  0.25 1 0  0.5 1 0  0.75 1 0  1 1 0  1.25 1 0  1.5 1 0  1.75 1 0  2 1 0  2.25 1 0  2.5 1 0  2.75 1 0  3 1 0  3.25 1 0  3.5 1 0  3.75 1 0  4 1 0  4.25 1 0  4.5 1 0  4.75 1 0  5 1 0  5.25 1 0  5.5 1 0  5.75 1 0  6 1 0  6.25 1 0  6.5 1 0  6.75 1 0  7 1 0  7.25 1 0  7.5 1 0  7.75 1 0  8 1 0  8.25 1 0  8.5 1 0  8.75 1 0  9 1 0  9.25 1 0  9.5 1 0  9.75 1 0  10 1 0  0 0 0.25  0.25 0 0.25  0.5 0 0.25  0.75 0 0.25  1 0 0.25  1.25 0 0.25  1.5 0 0.25  1.75 0 0.25  2 0 0.25  2.25 0 0.25  2.5 0 0.25  2.75 0 0.25  3 0 0.25  3.25 0 0.25  3.5 0 0.25  3.75 0 0.25  4 0 0.25  4.25 0 0.25  4.5 0 0.25  4.75 0 0.25  5 0 0.25  5.25 0 0.25  5.5 0 0.25  5.75 0 0.25  6 0 0.25  6.25 0 0.25  6.5 0 0.25  6.75 0 0.25  7 0 0.25  7.25 0 0.25  7.5 0 0.25  7.75 0 0.25  8 0 0.25  8.25 0 0.25  8.5 0 0.25  8.75 0 0.25  9 0 0.25  9.25 0 0.25  9.5 0 0.25  9.75 0 0.25  10 0 0.25  0 0.25 0.25  0.25 0.25 0.25  0.5 0.25 0.25  0.75 0.25 0.25  1 0.25 0.25  1.25 0.25 0.25  1.5 0.25 0.25  1.75 0.25 0.25  2 0.25 0.25  2.25 0.25 0.25  2.5 0.25 0.25  2.75 0.25 0.25  3 0.25 0.25  3.25 0.25 0.25  3.5 0.25 0.25  3.75 0.25 0.25  4 0.25 0.25  4.25 0.25 0.25  4.5 0.25 0.25  4.75 0.25 0.25  5 0.25 0.25  5.25 0.25 0.25  5.5 0.25 0.25  5.75 0.25 0.25  6 0.25 0.25  6.25 0.25 0.25  6.5 0.25 0.25  6.75 0.25 0.25  7 0.25 0.25  7.25 0.25 0.25  7.5 0.25 0.25  7.75 0.25 0.25  8 0.25 0.25  8.25 0.25 0.25  8.5 0.25 0.25  8.75 0.25 0.25  9 0.25 0.25  9.25 0.25 0.25  9.5 0.25 0.25  9.75 0.25 0.25  10 0.25 0.25  0 0.5 0.25  0.25 0.5 0.25  0.5 0.5 0.25  0.75 0.5 0.25  1 0.5 0.25  1.25 0.5 0.25  1.5 0.5 0.25  1.75 0.5 0.25  2 0.5 0.25  2.25 0.5 0.25  2.5 0.5 0.25  2.75 0.5 0.25  3 0.5 0.25  3.25 0.5 0.25  3.5 0.5 0.25  3.75 0.5 0.25  4 0.5 0.25  4.25 0.5 0.25  4.5 0.5 0.25  4.75 0.5 0.25  5 0.5 0.25  5.25 0.5 0.25  5.5 0.5 0.25  5.75 0.5 0.25  6 0.5 0.25  6.25 0.5 0.25  6.5 0.5 0.25  6.75 0.5 0.25  7 0.5 0.25  7.25 0.5 0.25  7.5 0.5 0.25  7.75 0.5 0.25  8 0.5 0.25  8.25 0.5 0.25  8.5 0.5 0.25  8.75 0.5 0.25  9 0.5 0.25  9.25 0.5 0.25  9.5 0.5 0.25  9.75 0.5 0.25  10 0.5 0.25  0 0.75 0.25  0.25 0.75 0.25  0.5 0.75 0.25  0.75 0.75 0.25  1 0.75 0.25  1.25 0.75 0.25  1.5 0.75 0.25  1.75 0.75 0.25  2 0.75 0.25  2.25 0.75 0.25  2.5 0.75 0.25  2.75 0.75 0.25  3 0.75 0.25  3.25 0.75 0.25  3.5 0.75 0.25  3.75 0.75 0.25  4 0.75 0.25  4.25 0.75 0.25  4.5 0.75 0.25  4.75 0.75 0.25  5 0.75 0.25  5.25 0.75 0.25  5.5 0.75 0.25  5.75 0.75 0.25  6 0.75 0.25  6.25 0.75 0.25  6.5 0.75 0.25  6.75 0.75 0.25  7 0.75 0.25  7.25 0.75 0.25  7.5 0.75 0.25  7.75 0.75 0.25  8 0.75 0.25  8.25 0.75 0.25  8.5 0.75 0.25  8.75 0.75 0.25  9 0.75 0.25  9.25 0.75 0.25  9.5 0.75 0.25  9.75 0.75 0.25  10 0.75 0.25  0 1 0.25  0.25 1 0.25  0.5 1 0.25  0.75 1 0.25  1 1 0.25  1.25 1 0.25  1.5 1 0.25  1.75 1 0.25  2 1 0.25  2.25 1 0.25  2.5 1 0.25  2.75 1 0.25  3 1 0.25  3.25 1 0.25  3.5 1 0.25  3.75 1 0.25  4 1 0.25  4.25 1 0.25  4.5 1 0.25  4.75 1 0.25  5 1 0.25  5.25 1 0.25  5.5 1 0.25  5.75 1 0.25  6 1 0.25  6.25 1 0.25  6.5 1 0.25  6.75 1 0.25  7 1 0.25  7.25 1 0.25  7.5 1 0.25  7.75 1 0.25  8 1 0.25  8.25 1 0.25  8.5 1 0.25  8.75 1 0.25  9 1 0.25  9.25 1 0.25  9.5 1 0.25  9.75 1 0.25  10 1 0.25  0 0 0.5  0.25 0 0.5  0.5 0 0.5  0.75 0 0.5  1 0 0.5  1.25 0 0.5  1.5 0 0.5  1.75 0 0.5  2 0 0.5  2.25 0 0.5  2.5 0 0.5  2.75 0 0.5  3 0 0.5  3.25 0 0.5  3.5 0 0.5  3.75 0 0.5  4 0 0.5  4.25 0 0.5  4.5 0 0.5  4.75 0 0.5  5 0 0.5  5.25 0 0.5  5.5 0 0.5  5.75 0 0.5  6 0 0.5  6.25 0 0.5  6.5 0 0.5  6.75 0 0.5  7 0 0.5  7.25 0 0.5  7.5 0 0.5  7.75 0 0.5  8 0 0.5  8.25 0 0.5  8.5 0 0.5  8.75 0 0.5  9 0 0.5  9.25 0 0.5  9.5 0 0.5  9.75 0 0.5  10 0 0.5  0 0.25 0.5  0.25 0.25 0.5  0.5 0.25 0.5  0.75 0.25 0.5  1 0.25 0.5  1.25 0.25 0.5  1.5 0.25 0.5  1.75 0.25 0.5  2 0.25 0.5  2.25 0.25 0.5  2.5 0.25 0.5  2.75 0.25 0.5  3 0.25 0.5  3.25 0.25 0.5  3.5 0.25 0.5  3.75 0.25 0.5  4 0.25 0.5  4.25 0.25 0.5  4.5 0.25 0.5  4.75 0.25 0.5  5 0.25 0.5  5.25 0.25 0.5  5.5 0.25 0.5  5.75 0.25 0.5  6 0.25 0.5  6.25 0.25 0.5  6.5 0.25 0.5  6.75 0.25 0.5  7 0.25 0.5  7.25 0.25 0.5  7.5 0.25 0.5  7.75 0.25 0.5  8 0.25 0.5  8.25 0.25 0.5  8.5 0.25 0.5  8.75 0.25 0.5  9 0.25 0.5  9.25 0.25 0.5  9.5 0.25 0.5  9.75 0.25 0.5  10 0.25 0.5  0 0.5 0.5  0.25 0.5 0.5  0.5 0.5 0.5  0.75 0.5 0.5  1 0.5 0.5  1.25 0.5 0.5  1.5 0.5 0.5  1.75 0.5 0.5  2 0.5 0.5  2.25 0.5 0.5  2.5 0.5 0.5  2.75 0.5 0.5  3 0.5 0.5  3.25 0.5 0.5  3.5 0.5 0.5  3.75 0.5 0.5  4 0.5 0.5  4.25 0.5 0.5  4.5 0.5 0.5  4.75 0.5 0.5  5 0.5 0.5  5.25 0.5 0.5  5.5 0.5 0.5  5.75 0.5 0.5  6 0.5 0.5  6.25 0.5 0.5  6.5 0.5 0.5  6.75 0.5 0.5  7 0.5 0.5  7.25 0.5 0.5  7.5 0.5 0.5  7.75 0.5 0.5  8 0.5 0.5  8.25 0.5 0.5  8.5 0.5 0.5  8.75 0.5 0.5  9 0.5 0.5  9.25 0.5 0.5  9.5 0.5 0.5  9.75 0.5 0.5  10 0.5 0.5  0 0.75 0.5  0.25 0.75 0.5  0.5 0.75 0.5  0.75 0.75 0.5  1 0.75 0.5  1.25 0.75 0.5  1.5 0.75 0.5  1.75 0.75 0.5  2 0.75 0.5  2.25 0.75 0.5  2.5 0.75 0.5  2.75 0.75 0.5  3 0.75 0.5  3.25 0.75 0.5  3.5 0.75 0.5  3.75 0.75 0.5  4 0.75 0.5  4.25 0.75 0.5  4.5 0.75 0.5  4.75 0.75 0.5  5 0.75 0.5  5.25 0.75 0.5  5.5 0.75 0.5  5.75 0.75 0.5  6 0.75 0.5  6.25 0.75 0.5  6.5 0.75 0.5  6.75 0.75 0.5  7 0.75 0.5  7.25 0.75 0.5  7.5 0.75 0.5  7.75 0.75 0.5  8 0.75 0.5  8.25 0.75 0.5  8.5 0.75 0.5  8.75 0.75 0.5  9 0.75 0.5  9.25 0.75 0.5  9.5 0.75 0.5  9.75 0.75 0.5  10 0.75 0.5  0 1 0.5  0.25 1 0.5  0.5 1 0.5  0.75 1 0.5  1 1 0.5  1.25 1 0.5  1.5 1 0.5  1.75 1 0.5  2 1 0.5  2.25 1 0.5  2.5 1 0.5  2.75 1 0.5  3 1 0.5  3.25 1 0.5  3.5 1 0.5  3.75 1 0.5  4 1 0.5  4.25 1 0.5  4.5 1 0.5  4.75 1 0.5  5 1 0.5  5.25 1 0.5  5.5 1 0.5  5.75 1 0.5  6 1 0.5  6.25 1 0.5  6.5 1 0.5  6.75 1 0.5  7 1 0.5  7.25 1 0.5  7.5 1 0.5  7.75 1 0.5  8 1 0.5  8.25 1 0.5  8.5 1 0.5  8.75 1 0.5  9 1 0.5  9.25 1 0.5  9.5 1 0.5  9.75 1 0.5  10 1 0.5  0 0 0.75  0.25 0 0.75  0.5 0 0.75  0.75 0 0.75  1 0 0.75  1.25 0 0.75  1.5 0 0.75  1.75 0 0.75  2 0 0.75  2.25 0 0.75  2.5 0 0.75  2.75 0 0.75  3 0 0.75  3.25 0 0.75  3.5 0 0.75  3.75 0 0.75  4 0 0.75  4.25 0 0.75  4.5 0 0.75  4.75 0 0.75  5 0 0.75  5.25 0 0.75  5.5 0 0.75  5.75 0 0.75  6 0 0.75  6.25 0 0.75  6.5 0 0.75  6.75 0 0.75  7 0 0.75  7.25 0 0.75  7.5 0 0.75  7.75 0 0.75  8 0 0.75  8.25 0 0.75  8.5 0 0.75  8.75 0 0.75  9 0 0.75  9.25 0 0.75  9.5 0 0.75  9.75 0 0.75  10 0 0.75  0 0.25 0.75  0.25 0.25 0.75  0.5 0.25 0.75  0.75 0.25 0.75  1 0.25 0.75  1.25 0.25 0.75  1.5 0.25 0.75  1.75 0.25 0.75  2 0.25 0.75  2.25 0.25 0.75  2.5 0.25 0.75  2.75 0.25 0.75  3 0.25 0.75  3.25 0.25 0.75  3.5 0.25 0.75  3.75 0.25 0.75  4 0.25 0.75  4.25 0.25 0.75  4.5 0.25 0.75  4.75 0.25 0.75  5 0.25 0.75  5.25 0.25 0.75  5.5 0.25 0.75  5.75 0.25 0.75  6 0.25 0.75  6.25 0.25 0.75  6.5 0.25 0.75  6.75 0.25 0.75  7 0.25 0.75  7.25 0.25 0.75  7.5 0.25 0.75  7.75 0.25 0.75  8 0.25 0.75  8.25 0.25 0.75  8.5 0.25 0.75  8.75 0.25 0.75  9 0.25 0.75  9.25 0.25 0.75  9.5 0.25 0.75  9.75 0.25 0.75  10 0.25 0.75  0 0.5 0.75  0.25 0.5 0.75  0.5 0.5 0.75  0.75 0.5 0.75  1 0.5 0.75  1.25 0.5 0.75  1.5 0.5 0.75  1.75 0.5 0.75  2 0.5 0.75  2.25 0.5 0.75  2.5 0.5 0.75  2.75 0.5 0.75  3 0.5 0.75  3.25 0.5 0.75  3.5 0.5 0.75  3.75 0.5 0.75  4 0.5 0.75  4.25 0.5 0.75  4.5 0.5 0.75  4.75 0.5 0.75  5 0.5 0.75  5.25 0.5 0.75  5.5 0.5 0.75  5.75 0.5 0.75  6 0.5 0.75  6.25 0.5 0.75  6.5 0.5 0.75  6.75 0.5 0.75  7 0.5 0.75  7.25 0.5 0.75  7.5 0.5 0.75  7.75 0.5 0.75  8 0.5 0.75  8.25 0.5 0.75  8.5 0.5 0.75  8.75 0.5 0.75  9 0.5 0.75  9.25 0.5 0.75  9.5 0.5 0.75  9.75 0.5 0.75  10 0.5 0.75  0 0.75 0.75  0.25 0.75 0.75  0.5 0.75 0.75  0.75 0.75 0.75  1 0.75 0.75  1.25 0.75 0.75  1.5 0.75 0.75  1.75 0.75 0.75  2 0.75 0.75  2.25 0.75 0.75  2.5 0.75 0.75  2.75 0.75 0.75  3 0.75 0.75  3.25 0.75 0.75  3.5 0.75 0.75  3.75 0.75 0.75  4 0.75 0.75  4.25 0.75 0.75  4.5 0.75 0.75  4.75 0.75 0.75  5 0.75 0.75  5.25 0.75 0.75  5.5 0.75 0.75  5.75 0.75 0.75  6 0.75 0.75  6.25 0.75 0.75  6.5 0.75 0.75  6.75 0.75 0.75  7 0.75 0.75  7.25 0.75 0.75  7.5 0.75 0.75  7.75 0.75 0.75  8 0.75 0.75  8.25 0.75 0.75  8.5 0.75 0.75  8.75 0.75 0.75  9 0.75 0.75  9.25 0.75 0.75  9.5 
[...]
<PointData  Scalars="f_90"> 
<DataArray  type="Float64"  Name="f_90"  format="ascii">2.0774457303865546e+02  1.3496841070900427e+02  1.2878904289729556e+02  1.2137257158163817e+02  1.1423234154221717e+02  1.0706393102660945e+02  9.9923289370500214e+01  9.2776743063568148e+01  8.5630084665099531e+01  7.8483486885241774e+01  7.1336778114610325e+01  6.4190356932273289e+01  5.7042110232692011e+01  4.9903059290184046e+01  4.2725870990419509e+01  3.5682702620397038e+01  2.8264875726323716e+01  2.0809527521377113e+01  1.3658339449379246e+01  6.5089655259081134e+00  -6.4043961302607078e-01  -7.7948724490842629e+00  -1.4925144955327164e+01  -2.2120595120040157e+01  -2.8838799762456198e+01  -3.5892891359475499e+01  -4.3033405273298911e+01  -5.0179966000454868e+01  -5.7326723155428510e+01  -6.4473363826822364e+01  -7.1620089614809231e+01  -7.8766800315975487e+01  -8.5913505761051340e+01  -9.3060220733185332e+01  -1.0020683872965947e+02  -1.0735368642595489e+02  -1.1450067901978866e+02  -1.2164626492198262e+02  -1.2882239731898881e+02  -1.3593554023573657e+02  -1.4114737730682174e+02  1.7302584344285398e+02  1.3343110409340420e+02  1.2843705093828342e+02  1.2152469825481901e+02  1.1418528078874508e+02  1.0706856578986449e+02  9.9924029752985916e+01  9.2776572776678194e+01  8.5630096639400620e+01  7.8483493362615178e+01  7.1336815190519019e+01  6.4190192544081185e+01  5.7042874135873944e+01  4.9899572267281116e+01  4.2739920268210909e+01  3.5641294329611469e+01  2.8299041813744232e+01  2.0802407895435273e+01  1.3658188564915411e+01  6.5090779240810299e+00  -6.4090382568178517e-01  -7.7927191766370889e+00  -1.4930993844602165e+01  -2.2117835302647599e+01  -2.8855233910068158e+01  -3.5881469801560542e+01  -4.3032935007048764e+01  -5.0180508309418073e+01  -5.7326667263637944e+01  -6.4473365294478072e+01  -7.1620093912608723e+01  -7.8766801021496818e+01  -8.5913506909666168e+01  -9.3060208215269938e+01  -1.0020685957084024e+02  -1.0735398632241542e+02  -1.1450024218452900e+02  -1.2164646997014152e+02  -1.2879904392828934e+02  -1.3581643316404228e+02  -1.4263372124061127e+02  1.6633085605396212e+02  1.3126233327472281e+02  1.2888506040095763e+02  1.2144306616981567e+02  1.1417141209077232e+02  1.0707375840165832e+02  9.9923798222312115e+01  9.2776452549093250e+01  8.5630165278883084e+01  7.8483514657798395e+01  7.1336826914536402e+01  6.4190126571990618e+01  5.7043047697345145e+01  4.9899633964736523e+01  4.2738572387201600e+01  3.5642032268831059e+01  2.8302976591510038e+01  2.0803396070186814e+01  1.3657386326847506e+01  6.5087580627166837e+00  -6.4104514394937984e-01  -7.7921720167462603e+00  -1.4930611051180643e+01  -2.2121383354483292e+01  -2.8857858552201954e+01  -3.5879542939242043e+01  -4.3032348629464920e+01  -5.0180621690657233e+01  -5.7326615187620206e+01  -6.4473400519037753e+01  -7.1620104345498035e+01  -7.8766805813450659e+01  -8.5913505646873176e+01  -9.3060195949684157e+01  -1.0020688622486230e+02  -1.0735396324889609e+02  -1.1449870423485652e+02  -1.2165286131235190e+02  -1.2881832267507679e+02  -1.3596807249008339e+02  -1.4284744894922795e+02  1.7516712118007069e+02  1.3807599986835939e+02  1.2798135910709706e+02  1.2163891443845475e+02  1.1414744152196585e+02  1.0707548976772955e+02  9.9924301296884437e+01  9.2776305676548532e+01  8.5630213401188655e+01  7.8483570870220234e+01  7.1336806598004557e+01  6.4190085134285908e+01  5.7043636667635980e+01  4.9896750597564932e+01  4.2744224138834397e+01  3.5635927653011180e+01  2.8303316587670999e+01  2.0803406976956701e+01  1.3657135150722018e+01  6.5086314121664692e+00  -6.4126551211088700e-01  -7.7903232973181638e+00  -1.4933080744411223e+01  -2.2116941655041735e+01  -2.8863189623291383e+01  -3.5876570211896123e+01  -4.3030094650862765e+01  -5.0180924068085730e+01  -5.7326722000419622e+01  -6.4473377727195739e+01  -7.1620135352092930e+01  -7.8766808556936056e+01  -8.5913504078029760e+01  -9.3060197371193851e+01  -1.0020696772230215e+02  -1.0735335072250402e+02  -1.1449964679552798e+02  -1.2165326869676204e+02  -1.2875350443767738e+02  -1.3590842524874222e+02  -1.4264019400001163e+02  3.5366058683271024e+02  1.0850069345238518e+02  1.3202730090090969e+02  1.2084178319216721e+02  1.1422034489319589e+02  1.0705575525903677e+02  9.9933848768879841e+01  9.2772479368874940e+01  8.5631341671875532e+01  7.8483363930324288e+01  7.1336843657331087e+01  6.4190033595872649e+01  5.7044291339173014e+01  4.9892165360037922e+01  4.2767240116302276e+01  3.5571331423264326e+01  2.8346560090565170e+01  2.0817445048061423e+01  1.3648736207283667e+01  6.5115771732193117e+00  -6.4195881494702722e-01  -7.7884371562249122e+00  -1.4940500423409867e+01  -2.2117790813957562e+01  -2.8870464248531313e+01  -3.5867658327512970e+01  -4.3022659906122556e+01  -5.0185682697814542e+01  -5.7325562480215851e+01  -6.4473581807609037e+01  -7.1620126692046696e+01  -7.8766804619887267e+01  -8.5913504838832495e+01  -9.3060212203182246e+01  -1.0020695299054125e+02  -1.0735307711221586e+02  -1.1450318570572442e+02  -1.2164766587680272e+02  -1.2877535295349426e+02  -1.3620782237299116e+02  -1.4233100316963652e+02  1.7302584344285646e+02  1.3343110409339781e+02  1.2843705093827094e+02  1.2152469825484016e+02  1.1418528078971053e+02  1.0706856579257439e+02  9.9924029762341121e+01  9.2776572865969342e+01  8.5630096496726196e+01  7.8483495051793568e+01  7.1336809654204501e+01  6.4190208550096315e+01  5.7042766846470613e+01  4.9900286875200635e+01  4.2735218028320446e+01  3.5650044809455125e+01  2.8314589565281189e+01  2.0779570950185168e+01  1.3646961778564309e+01  6.5024632746254021e+00  -6.4679062557584222e-01  -7.8016423310029630e+00  -1.4952805161550652e+01  -2.2141914344140922e+01  -2.8846101899265655e+01  -3.5891590374946659e+01  -4.3031405753438918e+01  -5.0180433925257461e+01  -5.7326621629062430e+01  -6.4473351436753134e+01  -7.1620094778326418e+01  -7.8766802262870996e+01  -8.5913507672920176e+01  -9.3060208523254516e+01  -1.0020685965972230e+02  -1.0735398633961839e+02  -1.1450024218399273e+02  -1.2164646996773622e+02  -1.2879904392690824e+02  -1.3581643316350534e+02  -1.4263372124042229e+02  1.3808417575155056e+02  1.3453891888546266e+02  1.2976806072992633e+02  1.2132700532451966e+02  1.1421053231071622e+02  1.0707338971564639e+02  9.9923586587018775e+01  9.2776549775091809e+01  8.5630144823254540e+01  7.8483489887967039e+01  7.1336817770865935e+01  6.4190104819834829e+01  5.7043460101141420e+01  4.9896983757855679e+01  4.2748170105687109e+01  3.5621231319614594e+01  2.8336356687356592e+01  2.0777497217040413e+01  1.3647652669534272e+01  6.5021521085797964e+00  -6.4707388453620784e-01  -7.7997933880130539e+00  -1.4957580709717115e+01  -2.2135684813256681e+01  -2.8868976696240388e+01  -3.5874659771369750e+01  -4.3035631396151913e+01  -5.0180260203222304e+01  -5.7326640001191421e+01  -6.4473387356852911e+01  -7.1620095851948250e+01  -7.8766801835352425e+01  -8.5913506534012924e+01  -9.3060204136425853e+01  -1.0020694471538710e+02  -1.0735377801940656e+02  -1.1450071339730343e+02  -1.2164855829614784e+02  -1.2878146227153903e+02  -1.3583402804204670e+02  -1.4273241216968887e+02  1.3429607552697098e+02  1.3426180378935473e+02  1.2977307137396437e+02  1.2121584478913618e+02  1.1423028073490156e+02  1.0707785102902167e+02  9.9922405331178851e+01  9.2776761224704785e+01  8.5630203785256242e+01  7.8483507531450329e+01  7.1336818333387640e+01  6.4190110272325740e+01  5.7043437019435885e+01  4.9897231402510670e+01  4.2747225158674127e+01  3.5619845915217326e+01  2.8342294335574060e+01  2.0778634284117437e+01  1.3648853630802142e+01  6.5016245847683400e+00  -6.4710796051044928e-01  -7.7999043212635364e+00  -1.4958238125715491e+01  -2.2138927605245989e+01  -2.8874505141032706e+01  -3.5868980662444741e+01  -4.3037137398781340e+01  -5.0179669849800888e+01  -5.7326701400555450e+01  -6.4473425759882218e+01  -7.1620105265333052e+01  -7.8766806889877216e+01  -8.5913505950333246e+01  -9.3060206333428056e+01  -1.0020693008632884e+02  -1.0735364470204172e+02  -1.1450015562961215e+02  -1.2164895049871208e+02  -1.2879555836725459e+02  -1.3595769720960439e+02  -1.4308621734432049e+02  1.3800472680524135e+02  1.3879464687604400e+02  1.2919916363353852e+02  1.2131475449177131e+02  1.1421361558856358e+02  1.0707805286368668e+02  9.9921625966118484e+01  9.2776833497584761e+01  8.5630313424924111e+01  7.8483515606917109e+01  7.1336814565845884e+01  6.4190123662070278e+01  5.7043505570595840e+01  4.9896471829472091e+01  4.2748907786916789e+01  3.5614034754865258e+01  2.8341553001901907e+01  2.0779287501684770e+01  1.3648499735320632e+01  6.5017243735791830e+00  -6.4735930183456536e-01  -7.7998345108715590e+00  -1.4960168423464888e+01  -2.2137226037461907e+01  -2.8873331651752530e+01  -3.5866172674535377e+01  -4.3034662351826086e+01  -5.0180313556399824e+01  -5.7326611634808117e+01  -6.4473460184234952e+01  -7.1620122175840805e+01  -7.8766809149837670e+01  -8.5913506649450454e+01  -9.3060209234713000e+01  -1.0020690609564036e+02  -1.0735354848737836e+02  -1.1450035585491133e+02  -1.2164787977830872e+02  -1.2877509393543050e+02  -1.3587566150867582e+02  -1.4275311065906070e+02  1.9075257012045537e+02  1.3118510355360240e+02  1.3005418938264458e+02  1.2137267073796713e+02  1.1416051443337304e+02  1.0710067032588253e+02  9.9915187425150350e+01  9.2778116353494880e+01  8.5630313199097429e+01  7.8483451262941742e+01  7.1336813049791061e+01  6.4190180790803993e+01  5.7043351265840670e+01  4.9896580194577638e+01  4.2752012155784797e+01  3.5601476643397291e+01  2.8350971503282615e+01  2.0771411370036965e+01  1.3654881468385275e+01  6.5004582951794170e+00  -6.4722911749893375e-01  -7.7996215075772248e+00  -1.4961589730520467e+01  -2.2130404309016320e+01  -2.8897830243818085e+01  -3.5831478145878094e+01  -4.3047088686404038e+01  -5.0178926051514225e+01  -5.7326496160980696e+01  -6.4473586744302821e+01  -7.1620106960360332e+01  -7.8766805088741947e+01  -8.5913508435250122e+01  -9.3060214832809606e+01  -1.0020688910319859e+02  -1.0735361144984979e+02  -1.1450115787596727e+02  -1.2164441750237610e+02  -1.2878842635889259e+02  -1.3595190335206041e+02  -1.4234905581372669e+02  1.6633085605400095e+02  1.3126233327474014e+02  1.2888506040100469e+02  1.2144306617004040e+02  1.1417141209245577e+02  1.0707375840463283e+02  9.9923798238500865e+01  9.2776452595057464e+01  8.5630165325537007e+01  7.8483514319167625e+01  7.1336825634590582e+01  6.4190129748498151e+01  5.7042856189129793e+01  4.9900315796360189e+01  4.2732557048236231e+01  3.5648898260984367e+01  2.8316643721674332e+01  2.0779627499046889e+01  1.3643954411138230e+01  6.5000229069089563e+00  -6.4913961616823745e-01  -7.8058503713576748e+00  -1.4959316042421984e+01  -2.2151743390016854e+01  -2.8849725665980621e+01  -3.5888923348002407e+01  -4.3030975567087111e+01  -5.0180469364879144e+01  -5.7326506179407374e+01  -6.4473346583465272e+01  -7.1620095894109866e+01  -7.8766803974855293e+01  -8.5913506248116988e+01  -9.3060196435185972e+01  -1.0020688644824705e+02  -1.0735396332665334e+02  -1.1449870425380479e+02  -1.2165286131441778e+02  -1.2881832267399290e+02  -1.3596807248917875e+02  -1.4284744894858773e+02  1.3429607552700924e+02  1.3426180378938571e+02  1.2977307137402948e+02  1.2121584478935171e+02  1.1423028073522261e+02  1.0707785102882883e+02  9.9922405329431427e+01  9.2776761186623304e+01  8.5630203641689349e+01  7.8483507097834263e+01  7.1336815002056852e+01  6.4190109801762873e+01  5.7043398620035390e+01  4.9897048542347306e+01  4.2746980416999037e+01  3.5619833497664331e+01  2.8341481819046358e+01  2.0774713266679136e+01  1.3644888488711876e+01  6.4995182350541008e+00  -6.4935377450438669e-01  -7.8038230231630870e+00  -1.4963531669240092e+01  -2.2145626057447068e+01  -2.8872196433412860e+01  -3.5872713503467480e+01  -4.3036342631708933e+01  -5.0180105947454706e+01  -5.7326558270092477e+01  -6.4473405380069423e+01  -7.1620092651748635e+01  -7.8766803439486750e+01  -8.5913505488847761e+01  -9.3060206400884510e+01  -1.0020693019804494e+02  -1.0735364475974340e+02  -1.1450015565050846e+02  -1.2164895050437073e+02  -1.2879555836809743e+02  -1.3595769720938688e+02  -1.4308621734407168e+02  1.3044227492580009e+02  1.3488971603280567e+02  1.2892860861964218e+02  1.2100783564985889e+02  1.1431801996699431e+02  1.0706656853601288e+02  9.9922575578146621e+01  9.2777149781367029e+01  8.5630288897802984e+01  7.8483505991662838e+01  7.1336820382900044e+01  6.4190126293784289e+01  5.7043312517561276e+01  4.9897475950699032e+01  4.2745912808782606e+01  3.5618212596401150e+01  2.8349279022453324e+01  2.0777718442313791e+01  1.3646262896345752e+01  6.4987936889523077e+00  -6.4930414372687584e-01  -7.8041039448804064e+00  -1.4964365961131159e+01  -2.2149214266893132e+01  -2.8878683333082655e+01  -3.5864909633630475e+01  -4.3039844401893504e+01  -5.0178469539548871e+01  -5.7326921138760795e+01  -6.4473392471545864e+01  -7.1620109742327102e+01  -7.8766807611184433e+01  -8.5913506922160650e+01  -9.3060207093683246e+01  -1.0020690507689693e+02  -1.0735356619059212e+02  -1.1449997254610597e+02  -1.2164683774496827e+02  -1.2880456632401501e+02  -1.3605053409553878e+02  -1.4391289356378053e+02  1.3225536386567558e+02  1.3903153664351984e+02  1.2820631435200397e+02  1.2115875201611743e+02  1.1431500734051906e+02  1.0705603038551507e+02  9.9922245732606797e+01  9.2777843960240858e+01  8.5630259139739195e+01  7.8483492964164981e+01  7.1336838135796370e+01  6.4190110671570409e+01  5.7043466798607369e+01  4.9896542642595904e+01  4.2747796314502210e+01  3.5613994334485710e+01  2.8347858416360658e+01  2.0777348674963783e+01  1.3645975699539553e+01  6.4986656309590707e+00  -6.4970542689178079e-01  -7.8042354625018753e+00  -1.4965573889730672e+01  -2.2147106246442725e+01  -2.8876012630100909e+01  -3.5860540331517669e+01  -4.3038438811523079e+01  -5.0178982161270667e+01  -5.7326853971694476e+01  -6.4473452772390345e+01  -7.1620117016139105e+01  -7.8766811442779343e+01  -8.5913508232335431e+01  -9.3060205498493673e+01  -1.0020689692227985e+02  -1.0735354793753339e+02  -1.1450000114247206e+02  -1.2164699371632511e+02  -1.2877961905291286e+02  -1.3593188395885443e+02  -1.4334059667354117e+02  2.1970530697516367e+02  1.3109087615429362e+02  1.2780907958935259e+02  1.2122786061566632e+02  1.1428271978766151e+02  1.0704828851734547e+02  9.9923972779396365e+01  9.2778930102571991e+01  8.5629816280891191e+01  7.8483567410661891e+01  7.1336839395022395e+01  6.4190128099894309e+01  5.7043468923759292e+01  4.9896314374189160e+01  4.2751739127940510e+01  3.5601142199624206e+01  2.8362897687272103e+01  2.0768680103451040e+01  1.3650674464688143e+01  6.4967313420663153e+00  -6.4919162147520670e-01  -7.8040067703934959e+00  -1.4966841479915212e+01  -2.2139201465418914e+01  -2.8889870338376092e+01  -3.5828064421563369e+01  -4.3055685271296397e+01  -5.0174817913012660e+01  -5.7327767992369502e+01  -6.4473410259441152e+01  -7.1620111740548893e+01  -7.8766813952177387e+01  -8.5913508493440105e+01  -9.3060207913170544e+01  -1.0020690810087106e+02  -1.0735361268255565e+02  -1.1450047276238462e+02  -1.2164703462291254e+02  -1.2879074261889212e+02  -1.3604668390823176e+02  -1.4273895579233621e+02  1.7516712118014996e+02  1.3807599986842411e+02  1.2798135910726359e+02  1.2163891443891990e+02  1.1414744152365611e+02  1.0707548976885971e+02  9.9924301296496651e+01  9.2776305670603364e+01  8.5630213078638405e+01  7.8483568895124478e+01  7.1336812008464506e+01  6.4190026962523746e+01  5.7043617940326527e+01  4.9897677276841563e+01  4.2737570037451036e+01  3.5651830642668784e+01  2.8305233655404187e+01  2.0781651508051063e+01  1.3645716532975632e+01  6.5031175138543098e+00  -6.4702203047618956e-01  -7.8013297014886938e+00  -1.4952115011006578e+01  -2.2141553384035980e+01  -2.8855965186164958e+01  -3.5888540155675472e+01  -4.3030852280179388e+01  -5.0180252647253312e+01  -5.7326685090935797e+01  -6.4473302414131439e+01  -7.1620112710062017e+01  -7.8766804002235588e+01  -8.5913503622569095e+01  -9.3060197722067954e+01  -1.0020696799250665e+02  -1.0735335083841728e+02  -1.1449964683338736e+02  -1.2165326870523884e+02  -1.2875350443823240e+02  -1.3590842524803114e+02  -1.4264019399932499e+02  1.3800472680531826e+02  1.3879464687611315e+02  1.2919916363370649e+02  1.2131475449222904e+02  1.1421361558942218e+02  1.0707805286398320e+02  9.9921625959397346e+01  9.2776833423082337e+01  8.5630313111481797e+01  7.8483514508804120e+01  7.1336809611284707e+01  6.4190110215153311e+01  5.7043488460825102e+01  4.9896411834242599e+01  4.2748938195376070e+01  3.5618272123325539e+01  2.8336709273909783e+01  2.0777495154521979e+01  1.3646728894817306e+01  6.5026630031770516e+00  -6.4712251070266835e-01  -7.8001835648841755e+00  -1.4958093006555623e+01  -2.2135512931364126e+01  -2.8871247463509853e+01  -3.5872998811192389e+01  -4.3035092881666529e+01  -5.0180289772363878e+01  -5.7326515858524644e+01  -6.4473404419216962e+01  -7.1620100274055162e+01  -7.8766803240703453e+01  -8.5913505623100605e+01  -9.3060209325870488e+01  -1.0020690628919058e+02  -1.0735354858822677e+02  -1.1450035589253545e+02  -1.2164787978872695e+02  -1.2877509393709235e+02  -1.3587566150836798e+02  -1.4275311065869531e+02  1.3225536386571642e+02  1.3903153664355668e+02  1.2820631435209779e+02  1.2115875201637348e+02  1.1431500734103636e+02  1.0705603038613856e+02  9.9922245727949701e+01  9.2777843924606771e+01  8.5630259012176936e+01  7.8483492193330164e+01  7.1336835899774456e+01  6.4190110153132650e+01  5.7043407336435564e+01  4.9896906388914061e+01  4.2747122656464626e+01  3.5617145333122863e+01  2.8344173633736411e+01  2.0780113305270795e+01  1.3648785443757225e+01  6.5019302808277395e+00  -6.4713797997441280e-01  -7.8004881096253165e+00  -1.4958323189945185e+01  -2.2139043872358762e+01  -2.8877322015364776e+01  -3.5863638644072665e+01  -4.3038486956558529e+01  -5.0178791052644200e+01  -5.7326765782826612e+01  -6.4473433766186773e+01  -7.1620104531038450e+01  -7.8766809227058189e+01  -8.5913507964561376e+01  -9.3060205613316015e+01  -1.0020689704565655e+02  -1.0735354798969796e+02  -1.1450000116032180e+02  -1.2164699372065994e+02  -1.2877961905328524e+02  -1.3593188395856595e+02  -1.4334059667323970e+02  1.3752500069413821e+02  1.4385011317018979e+02  1.2740829994058413e+02  1.2147615507682363e+02  1.1433092077466569e+02  1.0701953278086509e+02  9.9929458801821966e+01  9.2778323858312035e+01  8.5629739481172635e+01  7.8483610224868158e+01  7.1336847245400492e+01  6.4190111911810391e+01  5.7043423412457287e+01  4.9896521771170171e+01  4.2748163913316318e+01  3.5613930070949863e+01  2.8345379180692142e+01  2.0780524260675328e+01  1.3648426918350628e+01  6.5016765665721188e+00  -6.4734960442063572e-01  -7.8005316010557202e+00  -1.4959448163713910e+01  -2.2137220818124284e+01  -2.8875399123253708e+01  -3.5858928626355890e+01  -4.3037793298055860e+01  -5.0178775775838758e+01  -5.7326866795241784e+01  -6.4473461714112716e+01  -7.1620103560668781e+01  -7.8766817255827647e+01  -8.5913508162888604e+01  -9.3060204735679321e+01  -1.0020689330291661e+02  -1.0735352914963489e+02  -1.1450025890967922e+02  -1.2164539771086153e+02  -1.2878432789156315e+02  -1.3588724380369450e+02  -1.4295549110830149e+02  2.1137265922836968e+02  1.3521236555255274e+02  1.2716684654376547e+02  1.2206098052311671e+02  1.1417788522299449e+02  1.0700834640284222e+02  9.9947520458839534e+01  9.2773825331773679e+01  8.5629953883673011e+01  7.8483776883120385e+01  7.1336805414125337e+01  6.4190123159851765e+01  5.7043420081352338e+01  4.9896357820736824e+01  4.2751590597697771e+01  3.5599084673033985e+01  2.8363096075799469e+01  2.0772121299200258e+01  1.3653375042890735e+01  6.4999944335828310e+00  -6.4679991156023253e-01  -7.8004062158251450e+00  -1.4960295641593257e+01  -2.2133206711284451e+01  -2.8887957110187223e+01  -3.5826654943822888e+01  -4.3054535720814769e+01  -5.0173772948591093e+01  -5.7328273415424732e+01  -6.4473188495343337e+01  -7.1620143598667084e+01  -7.8766816679333218e+01  -8.5913506564959206e+01  -9.306020710474