<?xml version="1.0"?>
<VTKFile type="UnstructuredGrid"  version="0.1"  >
<UnstructuredGrid>
<Piece  NumberOfPoints="1025" NumberOfCells="3840">
<Points>
<DataArray  type="Float64"  NumberOfComponents="3"  format="ascii">0 0 0  0.25 0 0  0.5 0 0  0.75 0 0  1 0 0  1.25 0 0  1.5 0 0  1.75 0 0  2 0 0  2.25 0 0  2.5 0 0  2.75 0 0  3 0 0  3.25 0 0  3.5 0 0  3.75 0 0  4 0 0  4.25 0 0  4.5 0 0  4.75 0 0  5 0 0  5.25 0 0  5.5 0 0  5.75 0 0  6 0 0  6.25 0 0  6.5 0 0  6.75 0 0  7 0 0  7.25 0 0  7.5 0 0  7.75 0 0  8 0 0  8.25 0 0  8.5 0 0  8.75 0 0  9 0 0  9.25 0 0  9.5 0 0  9.75 0 0  10 0 0  0 0.25 0  0.25 0.25 0  0.5 0.25 0  0.75 0.25 0  1 0.25 0  1.25 0.25 0  1.5 0.25 0  1.75 0.25 0  2 0.25 0  2.25 0.25 0  2.5 0.25 0  2.75 0.25 0  3 0.25 0  3.25 0.25 0  3.5 0.25 0  3.75 0.25 0  4 0.25 0  4.25 0.25 0  4.5 0.25 0  4.75 0.25 0  5 0.25 0  5.25 0.25 0  5.5 0.25 0  5.75 0.25 0  6 0.25 0  6.25 0.25 0  6.5 0.25 0  6.75 0.25 0  7 0.25 0  7.25 0.25 0  7.5 0.25 0  7.75 0.25 0  8 0.25 0  8.25 0.25 0  8.5 0.25 0  8.75 0.25 0  9 0.25 0  9.25 0.25 0  9.5 0.25 0  9.75 0.25 0  10 0.25 0  0 0.5 0  0.25 0.5 0  0.5 0.5 0  0.75 0.5 0  1 0.5 0  1.25 0.5 0  1.5 0.5 0  1.75 0.5 0  2 0.5 0  2.25 0.5 0  2.5 0.5 0  2.75 0.5 0  3 0.5 0  3.25 0.5 0  3.5 0.5 0  3.75 0.5 0  4 0.5 0  4.25 0.5 0  4.5 0.5 0  4.75 0.5 0  5 0.5 0  5.25 0.5 0  5.5 0.5 0  5.75 0.5 0  6 0.5 0  6.25 0.5 0  6.5 0.5 0  6.75 0.5 0  7 0.5 0  7.25 0.5 0  7.5 0.5 0  7.75 0.5 0  8 0.5 0  8.25 0.5 0  8.5 0.5 0  8.75 0.5 0  9 0.5 0  9.25 0.5 0  9.5 0.5 0  9.75 0.5 0  10 0.5 0  0 0.75 0  0.25 0.75 0  0.5 0.75 0  0.75 0.75 0  1 0.75 0  1.25 0.75 0  1.5 0.75 0  1.75 0.75 0  2 0.75 0  2.25 0.75 0  2.5 0.75 0  2.75 0.75 0  3 0.75 0  3.25 0.75 0  3.5 0.75 0  3.75 0.75 0  4 0.75 0  4.25 0.75 0  4.5 0.75 0  4.75 0.75 0  5 0.75 0  5.25 0.75 0  5.5 0.75 0  5.75 0.75 0  6 0.75 0  6.25 0.75 0  6.5 0.75 0  6.75 0.75 0  7 0.75 0  7.25 0.75 0  7.5 0.75 0  7.75 0.75 0  8 0.75 0  8.25 0.75 0  8.5 0.75 0  8.75 0.75 0  9 0.75 0  9.25 0.75 0  9.5 0.75 0  9.75 0.75 0  10 0.75 0  0 1 0  0.25 1 0  0.5 1 0  0.75 1 0  1 1 0  1.25 1 0  1.5 1 0  1.75 1 0  2 1 0  2.25 1 0  2.5 1 0  2.75 1 0  3 1 0  3.25 1 0  3.5 1 0  3.75 1 0  4 1 0  4.25 1 0  4.5 1 0  4.75 1 0  5 1 0  5.25 1 0  5.5 1 0  5.75 1 0  6 1 0  6.25 1 0  6.5 1 0  6.75 1 0  7 1 0  7.25 1 0  7.5 1 0  7.75 1 0  8 1 0  8.25 1 0  8.5 1 0  8.75 1 0  9 1 0  9.25 1 0  9.5 1 0  9.75 1 0  10 1 0  0 0 0.25  0.25 0 0.25  0.5 0 0.25  0.75 0 0.25  1 0 0.25  1.25 0 0.25  1.5 0 0.25  1.75 0 0.25  2 0 0.25  2.25 0 0.25  2.5 0 0.25  2.75 0 0.25  3 0 0.25  3.25 0 0.25  3.5 0 0.25  3.75 0 0.25  4 0 0.25  4.25 0 0.25  4.5 0 0.25  4.75 0 0.25  5 0 0.25  5.25 0 0.25  5.5 0 0.25  5.75 0 0.25  6 0 0.25  6.25 0 0.25  6.5 0 0.25  6.75 0 0.25  7 0 0.25  7.25 0 0.25  7.5 0 0.25  7.75 0 0.25  8 0 0.25  8.25 0 0.25  8.5 0 0.25  8.75 0 0.25  9 0 0.25  9.25 0 0.25  9.5 0 0.25  9.75 0 0.25  10 0 0.25  0 0.25 0.25  0.25 0.25 0.25  0.5 0.25 0.25  0.75 0.25 0.25  1 0.25 0.25  1.25 0.25 0.25  1.5 0.25 0.25  1.75 0.25 0.25  2 0.25 0.25  2.25 0.25 0.25  2.5 0.25 0.25  2.75 0.25 0.25  3 0.25 0.25  3.25 0.25 0.25  3.5 0.25 0.25  3.75 0.25 0.25  4 0.25 0.25  4.25 0.25 0.25  4.5 0.25 0.25  4.75 0.25 0.25  5 0.25 0.25  5.25 0.25 0.25  5.5 0.25 0.25  5.75 0.25 0.25  6 0.25 0.25  6.25 0.25 0.25  6.5 0.25 0.25  6.75 0.25 0.25  7 0.25 0.25  7.25 0.25 0.25  7.5 0.25 0.25  7.75 0.25 0.25  8 0.25 0.25  8.25 0.25 0.25  8.5 0.25 0.25  8.75 0.25 0.25  9 0.25 0.25  9.25 0.25 0.25  9.5 0.25 0.25  9.75 0.25 0.25  10 0.25 0.25  0 0.5 0.25  0.25 0.5 0.25  0.5 0.5 0.25  0.75 0.5 0.25  1 0.5 0.25  1.25 0.5 0.25  1.5 0.5 0.25  1.75 0.5 0.25  2 0.5 0.25  2.25 0.5 0.25  2.5 0.5 0.25  2.75 0.5 0.25  3 0.5 0.25  3.25 0.5 0.25  3.5 0.5 0.25  3.75 0.5 0.25  4 0.5 0.25  4.25 0.5 0.25  4.5 0.5 0.25  4.75 0.5 0.25  5 0.5 0.25  5.25 0.5 0.25  5.5 0.5 0.25  5.75 0.5 0.25  6 0.5 0.25  6.25 0.5 0.25  6.5 0.5 0.25  6.75 0.5 0.25  7 0.5 0.25  7.25 0.5 0.25  7.5 0.5 0.25  7.75 0.5 0.25  8 0.5 0.25  8.25 0.5 0.25  8.5 0.5 0.25  8.75 0.5 0.25  9 0.5 0.25  9.25 0.5 0.25  9.5 0.5 0.25  9.75 0.5 0.25  10 0.5 0.25  0 0.75 0.25  0.25 0.75 0.25  0.5 0.75 0.25  0.75 0.75 0.25  1 0.75 0.25  1.25 0.75 0.25  1.5 0.75 0.25  1.75 0.75 0.25  2 0.75 0.25  2.25 0.75 0.25  2.5 0.75 0.25  2.75 0.75 0.25  3 0.75 0.25  3.25 0.75 0.25  3.5 0.75 0.25  3.75 0.75 0.25  4 0.75 0.25  4.25 0.75 0.25  4.5 0.75 0.25  4.75 0.75 0.25  5 0.75 0.25  5.25 0.75 0.25  5.5 0.75 0.25  5.75 0.75 0.25  6 0.75 0.25  6.25 0.75 0.25  6.5 0.75 0.25  6.75 0.75 0.25  7 0.75 0.25  7.25 0.75 0.25  7.5 0.75 0.25  7.75 0.75 0.25  8 0.75 0.25  8.25 0.75 0.25  8.5 0.75 0.25  8.75 0.75 0.25  9 0.75 0.25  9.25 0.75 0.25  9.5 0.75 0.25  9.75 0.75 0.25  10 0.75 0.25  0 1 0.25  0.25 1 0.25  0.5 1 0.25  0.75 1 0.25  1 1 0.25  1.25 1 0.25  1.5 1 0.25  1.75 1 0.25  2 1 0.25  2.25 1 0.25  2.5 1 0.25  2.75 1 0.25  3 1 0.25  3.25 1 0.25  3.5 1 0.25  3.75 1 0.25  4 1 0.25  4.25 1 0.25  4.5 1 0.25  4.75 1 0.25  5 1 0.25  5.25 1 0.25  5.5 1 0.25  5.75 1 0.25  6 1 0.25  6.25 1 0.25  6.5 1 0.25  6.75 1 0.25  7 1 0.25  7.25 1 0.25  7.5 1 0.25  7.75 1 0.25  8 1 0.25  8.25 1 0.25  8.5 1 0.25  8.75 1 0.25  9 1 0.25  9.25 1 0.25  9.5 1 0.25  9.75 1 0.25  10 1 0.25  0 0 0.5  0.25 0 0.5  0.5 0 0.5  0.75 0 0.5  1 0 0.5  1.25 0 0.5  1.5 0 0.5  1.75 0 0.5  2 0 0.5  2.25 0 0.5  2.5 0 0.5  2.75 0 0.5  3 0 0.5  3.25 0 0.5  3.5 0 0.5  3.75 0 0.5  4 0 0.5  4.25 0 0.5  4.5 0 0.5  4.75 0 0.5  5 0 0.5  5.25 0 0.5  5.5 0 0.5  5.75 0 0.5  6 0 0.5  6.25 0 0.5  6.5 0 0.5  6.75 0 0.5  7 0 0.5  7.25 0 0.5  7.5 0 0.5  7.75 0 0.5  8 0 0.5  8.25 0 0.5  8.5 0 0.5  8.75 0 0.5  9 0 0.5  9.25 0 0.5  9.5 0 0.5  9.75 0 0.5  10 0 0.5  0 0.25 0.5  0.25 0.25 0.5  0.5 0.25 0.5  0.75 0.25 0.5  1 0.25 0.5  1.25 0.25 0.5  1.5 0.25 0.5  1.75 0.25 0.5  2 0.25 0.5  2.25 0.25 0.5  2.5 0.25 0.5  2.75 0.25 0.5  3 0.25 0.5  3.25 0.25 0.5  3.5 0.25 0.5  3.75 0.25 0.5  4 0.25 0.5  4.25 0.25 0.5  4.5 0.25 0.5  4.75 0.25 0.5  5 0.25 0.5  5.25 0.25 0.5  5.5 0.25 0.5  5.75 0.25 0.5  6 0.25 0.5  6.25 0.25 0.5  6.5 0.25 0.5  6.75 0.25 0.5  7 0.25 0.5  7.25 0.25 0.5  7.5 0.25 0.5  7.75 0.25 0.5  8 0.25 0.5  8.25 0.25 0.5  8.5 0.25 0.5  8.75 0.25 0.5  9 0.25 0.5  9.25 0.25 0.5  9.5 0.25 0.5  9.75 0.25 0.5  10 0.25 0.5  0 0.5 0.5  0.25 0.5 0.5  0.5 0.5 0.5  0.75 0.5 0.5  1 0.5 0.5  1.25 0.5 0.5  1.5 0.5 0.5  1.75 0.5 0.5  2 0.5 0.5  2.25 0.5 0.5  2.5 0.5 0.5  2.75 0.5 0.5  3 0.5 0.5  3.25 0.5 0.5  3.5 0.5 0.5  3.75 0.5 0.5  4 0.5 0.5  4.25 0.5 0.5  4.5 0.5 0.5  4.75 0.5 0.5  5 0.5 0.5  5.25 0.5 0.5  5.5 0.5 0.5  5.75 0.5 0.5  6 0.5 0.5  6.25 0.5 0.5  6.5 0.5 0.5  6.75 0.5 0.5  7 0.5 0.5  7.25 0.5 0.5  7.5 0.5 0.5  7.75 0.5 0.5  8 0.5 0.5  8.25 0.5 0.5  8.5 0.5 0.5  8.75 0.5 0.5  9 0.5 0.5  9.25 0.5 0.5  9.5 0.5 0.5  9.75 0.5 0.5  10 0.5 0.5  0 0.75 0.5  0.25 0.75 0.5  0.5 0.75 0.5  0.75 0.75 0.5  1 0.75 0.5  1.25 0.75 0.5  1.5 0.75 0.5  1.75 0.75 0.5  2 0.75 0.5  2.25 0.75 0.5  2.5 0.75 0.5  2.75 0.75 0.5  3 0.75 0.5  3.25 0.75 0.5  3.5 0.75 0.5  3.75 0.75 0.5  4 0.75 0.5  4.25 0.75 0.5  4.5 0.75 0.5  4.75 0.75 0.5  5 0.75 0.5  5.25 0.75 0.5  5.5 0.75 0.5  5.75 0.75 0.5  6 0.75 0.5  6.25 0.75 0.5  6.5 0.75 0.5  6.75 0.75 0.5  7 0.75 0.5  7.25 0.75 0.5  7.5 0.75 0.5  7.75 0.75 0.5  8 0.75 0.5  8.25 0.75 0.5  8.5 0.75 0.5  8.75 0.75 0.5  9 0.75 0.5  9.25 0.75 0.5  9.5 0.75 0.5  9.75 0.75 0.5  10 0.75 0.5  0 1 0.5  0.25 1 0.5  0.5 1 0.5  0.75 1 0.5  1 1 0.5  1.25 1 0.5  1.5 1 0.5  1.75 1 0.5  2 1 0.5  2.25 1 0.5  2.5 1 0.5  2.75 1 0.5  3 1 0.5  3.25 1 0.5  3.5 1 0.5  3.75 1 0.5  4 1 0.5  4.25 1 0.5  4.5 1 0.5  4.75 1 0.5  5 1 0.5  5.25 1 0.5  5.5 1 0.5  5.75 1 0.5  6 1 0.5  6.25 1 0.5  6.5 1 0.5  6.75 1 0.5  7 1 0.5  7.25 1 0.5  7.5 1 0.5  7.75 1 0.5  8 1 0.5  8.25 1 0.5  8.5 1 0.5  8.75 1 0.5  9 1 0.5  9.25 1 0.5  9.5 1 0.5  9.75 1 0.5  10 1 0.5  0 0 0.75  0.25 0 0.75  0.5 0 0.75  0.75 0 0.75  1 0 0.75  1.25 0 0.75  1.5 0 0.75  1.75 0 0.75  2 0 0.75  2.25 0 0.75  2.5 0 0.75  2.75 0 0.75  3 0 0.75  3.25 0 0.75  3.5 0 0.75  3.75 0 0.75  4 0 0.75  4.25 0 0.75  4.5 0 0.75  4.75 0 0.75  5 0 0.75  5.25 0 0.75  5.5 0 0.75  5.75 0 0.75  6 0 0.75  6.25 0 0.75  6.5 0 0.75  6.75 0 0.75  7 0 0.75  7.25 0 0.75  7.5 0 0.75  7.75 0 0.75  8 0 0.75  8.25 0 0.75  8.5 0 0.75  8.75 0 0.75  9 0 0.75  9.25 0 0.75  9.5 0 0.75  9.75 0 0.75  10 0 0.75  0 0.25 0.75  0.25 0.25 0.75  0.5 0.25 0.75  0.75 0.25 0.75  1 0.25 0.75  1.25 0.25 0.75  1.5 0.25 0.75  1.75 0.25 0.75  2 0.25 0.75  2.25 0.25 0.75  2.5 0.25 0.75  2.75 0.25 0.75  3 0.25 0.75  3.25 0.25 0.75  3.5 0.25 0.75  3.75 0.25 0.75  4 0.25 0.75  4.25 0.25 0.75  4.5 0.25 0.75  4.75 0.25 0.75  5 0.25 0.75  5.25 0.25 0.75  5.5 0.25 0.75  5.75 0.25 0.75  6 0.25 0.75  6.25 0.25 0.75  6.5 0.25 0.75  6.75 0.25 0.75  7 0.25 0.75  7.25 0.25 0.75  7.5 0.25 0.75  7.75 0.25 0.75  8 0.25 0.75  8.25 0.25 0.75  8.5 0.25 0.75  8.75 0.25 0.75  9 0.25 0.75  9.25 0.25 0.75  9.5 0.25 0.75  9.75 0.25 0.75  10 0.25 0.75  0 0.5 0.75  0.25 0.5 0.75  0.5 0.5 0.75  0.75 0.5 0.75  1 0.5 0.75  1.25 0.5 0.75  1.5 0.5 0.75  1.75 0.5 0.75  2 0.5 0.75  2.25 0.5 0.75  2.5 0.5 0.75  2.75 0.5 0.75  3 0.5 0.75  3.25 0.5 0.75  3.5 0.5 0.75  3.75 0.5 0.75  4 0.5 0.75  4.25 0.5 0.75  4.5 0.5 0.75  4.75 0.5 0.75  5 0.5 0.75  5.25 0.5 0.75  5.5 0.5 0.75  5.75 0.5 0.75  6 0.5 0.75  6.25 0.5 0.75  6.5 0.5 0.75  6.75 0.5 0.75  7 0.5 0.75  7.25 0.5 0.75  7.5 0.5 0.75  7.75 0.5 0.75  8 0.5 0.75  8.25 0.5 0.75  8.5 0.5 0.75  8.75 0.5 0.75  9 0.5 0.75  9.25 0.5 0.75  9.5 0.5 0.75  9.75 0.5 0.75  10 0.5 0.75  0 0.75 0.75  0.25 0.75 0.75  0.5 0.75 0.75  0.75 0.75 0.75  1 0.75 0.75  1.25 0.75 0.75  1.5 0.75 0.75  1.75 0.75 0.75  2 0.75 0.75  2.25 0.75 0.75  2.5 0.75 0.75  2.75 0.75 0.75  3 0.75 0.75  3.25 0.75 0.75  3.5 0.75 0.75  3.75 0.75 0.75  4 0.75 0.75  4.25 0.75 0.75  4.5 0.75 0.75  4.75 0.75 0.75  5 0.75 0.75  5.25 0.75 0.75  5.5 0.75 0.75  5.75 0.75 0.75  6 0.75 0.75  6.25 0.75 0.75  6.5 0.75 0.75  6.75 0.75 0.75  7 0.75 0.75  7.25 0.75 0.75  7.5 0.75 0.75  7.75 0.75 0.75  8 0.75 0.75  8.25 0.75 0.75  8.5 0.75 0.75  8.75 0.75 0.75  9 0.75 0.75  9.25 0.75 0.75  9.5 
[...]
<PointData  Scalars="f_117"> 
<DataArray  type="Float64"  Name="f_117"  format="ascii">0.0000000000000000e+00  0.0000000000000000e+00  0.0000000000000000e+00  0.0000000000000000e+00  0.0000000000000000e+00  0.0000000000000000e+00  0.0000000000000000e+00  0.0000000000000000e+00  0.0000000000000000e+00  0.0000000000000000e+00  0.0000000000000000e+00  0.0000000000000000e+00  0.0000000000000000e+00  0.0000000000000000e+00  0.0000000000000000e+00  0.0000000000000000e+00  0.0000000000000000e+00  0.0000000000000000e+00  0.0000000000000000e+00  0.0000000000000000e+00  0.0000000000000000e+00  0.0000000000000000e+00  0.0000000000000000e+00  0.0000000000000000e+00  0.0000000000000000e+00  0.0000000000000000e+00  0.0000000000000000e+00  0.0000000000000000e+00  0.0000000000000000e+00  0.0000000000000000e+00  0.0000000000000000e+00  0.0000000000000000e+00  0.0000000000000000e+00  0.0000000000000000e+00  0.0000000000000000e+00  0.0000000000000000e+00  0.0000000000000000e+00  0.0000000000000000e+00  0.0000000000000000e+00  0.0000000000000000e+00  0.0000000000000000e+00  0.0000000000000000e+00  0.0000000000000000e+00  0.0000000000000000e+00  0.0000000000000000e+00  0.0000000000000000e+00  0.0000000000000000e+00  0.0000000000000000e+00  0.0000000000000000e+00  0.0000000000000000e+00  0.0000000000000000e+00  0.0000000000000000e+00  0.0000000000000000e+00  0.0000000000000000e+00  0.0000000000000000e+00  0.0000000000000000e+00  0.0000000000000000e+00  0.0000000000000000e+00  0.0000000000000000e+00  0.0000000000000000e+00  0.0000000000000000e+00  0.0000000000000000e+00  0.0000000000000000e+00  0.0000000000000000e+00  0.0000000000000000e+00  0.0000000000000000e+00  0.0000000000000000e+00  0.0000000000000000e+00  0.0000000000000000e+00  0.0000000000000000e+00  0.0000000000000000e+00  0.0000000000000000e+00  0.0000000000000000e+00  0.0000000000000000e+00  0.0000000000000000e+00  0.0000000000000000e+00  0.0000000000000000e+00  0.0000000000000000e+00  0.0000000000000000e+00  0.0000000000000000e+00  0.0000000000000000e+00  0.0000000000000000e+00  0.0000000000000000e+00  0.0000000000000000e+00  0.0000000000000000e+00  0.0000000000000000e+00  0.0000000000000000e+00  0.0000000000000000e+00  0.0000000000000000e+00  0.0000000000000000e+00  0.0000000000000000e+00  0.0000000000000000e+00  0.0000000000000000e+00  0.0000000000000000e+00  0.0000000000000000e+00  0.0000000000000000e+00  0.0000000000000000e+00  0.0000000000000000e+00  0.0000000000000000e+00  0.0000000000000000e+00  0.0000000000000000e+00  0.0000000000000000e+00  0.0000000000000000e+00  0.0000000000000000e+00  0.0000000000000000e+00  0.0000000000000000e+00  0.0000000000000000e+00  0.0000000000000000e+00  0.0000000000000000e+00  0.0000000000000000e+00  0.0000000000000000e+00  0.0000000000000000e+00  0.0000000000000000e+00  0.0000000000000000e+00  0.0000000000000000e+00  0.0000000000000000e+00  0.0000000000000000e+00  0.0000000000000000e+00  0.0000000000000000e+00  0.0000000000000000e+00  0.0000000000000000e+00  0.0000000000000000e+00  0.0000000000000000e+00  0.0000000000000000e+00  0.0000000000000000e+00  0.0000000000000000e+00  0.0000000000000000e+00  0.0000000000000000e+00  0.0000000000000000e+00  0.0000000000000000e+00  0.0000000000000000e+00  0.0000000000000000e+00  0.0000000000000000e+00  0.0000000000000000e+00  0.0000000000000000e+00  0.0000000000000000e+00  0.0000000000000000e+00  0.0000000000000000e+00  0.0000000000000000e+00  0.0000000000000000e+00  0.0000000000000000e+00  0.0000000000000000e+00  0.0000000000000000e+00  0.0000000000000000e+00  0.0000000000000000e+00  0.0000000000000000e+00  0.0000000000000000e+00  0.0000000000000000e+00  0.0000000000000000e+00  0.0000000000000000e+00  0.0000000000000000e+00  0.0000000000000000e+00  0.0000000000000000e+00  0.0000000000000000e+00  0.0000000000000000e+00  0.0000000000000000e+00  0.0000000000000000e+00  0.0000000000000000e+00  0.0000000000000000e+00  0.0000000000000000e+00  0.0000000000000000e+00  0.0000000000000000e+00  0.0000000000000000e+00  0.0000000000000000e+00  0.0000000000000000e+00  0.0000000000000000e+00  0.0000000000000000e+00  0.0000000000000000e+00  0.0000000000000000e+00  0.0000000000000000e+00  0.0000000000000000e+00  0.0000000000000000e+00  0.0000000000000000e+00  0.0000000000000000e+00  0.0000000000000000e+00  0.0000000000000000e+00  0.0000000000000000e+00  0.0000000000000000e+00  0.0000000000000000e+00  0.0000000000000000e+00  0.0000000000000000e+00  0.0000000000000000e+00  0.0000000000000000e+00  0.0000000000000000e+00  0.0000000000000000e+00  0.0000000000000000e+00  0.0000000000000000e+00  0.0000000000000000e+00  0.0000000000000000e+00  0.0000000000000000e+00  0.0000000000000000e+00  0.0000000000000000e+00  0.0000000000000000e+00  0.0000000000000000e+00  0.0000000000000000e+00  0.0000000000000000e+00  0.0000000000000000e+00  0.0000000000000000e+00  0.0000000000000000e+00  0.0000000000000000e+00  0.0000000000000000e+00  0.0000000000000000e+00  0.0000000000000000e+00  0.0000000000000000e+00  0.0000000000000000e+00  0.0000000000000000e+00  0.0000000000000000e+00  0.0000000000000000e+00  0.0000000000000000e+00  0.0000000000000000e+00  0.0000000000000000e+00  0.0000000000000000e+00  0.0000000000000000e+00  0.0000000000000000e+00  0.0000000000000000e+00  0.0000000000000000e+00  0.0000000000000000e+00  0.0000000000000000e+00  0.0000000000000000e+00  0.0000000000000000e+00  0.0000000000000000e+00  0.0000000000000000e+00  0.0000000000000000e+00  0.0000000000000000e+00  0.0000000000000000e+00  0.0000000000000000e+00  0.0000000000000000e+00  0.0000000000000000e+00  0.0000000000000000e+00  0.0000000000000000e+00  0.0000000000000000e+00  0.0000000000000000e+00  0.0000000000000000e+00  0.0000000000000000e+00  0.0000000000000000e+00  0.0000000000000000e+00  0.0000000000000000e+00  0.0000000000000000e+00  0.0000000000000000e+00  0.0000000000000000e+00  0.0000000000000000e+00  0.0000000000000000e+00  0.0000000000000000e+00  0.0000000000000000e+00  0.0000000000000000e+00  0.0000000000000000e+00  0.0000000000000000e+00  -2.0125380466010027e-08  -6.3829454062734477e-08  -1.8231644469981677e-07  -5.1441245687563797e-07  -1.4492502409441632e-06  -4.0823990774976463e-06  -1.1500760768912959e-05  -3.2407021503135281e-05  -9.1361772629715708e-05  -2.5782887626813524e-04  -7.2914515256119810e-04  -2.0710481868857619e-03  -5.9355704541864092e-03  -1.7323644916256618e-02  -5.2365217162050823e-02  -4.7284829438446162e-02  8.2311925997106059e-02  2.9373167415213300e-02  1.1016982008595176e-02  6.8136156634229367e-03  1.1016982008595470e-02  2.9373167415213099e-02  8.2311925997106017e-02  -4.7284829438444878e-02  -5.2365217162052675e-02  -1.7323644916257253e-02  -5.9355704541865671e-03  -2.0710481868858170e-03  -7.2914515256121101e-04  -2.5782887626813833e-04  -9.1361772629717158e-05  -3.2407021503135749e-05  -1.1500760768913649e-05  -4.0823990774978385e-06  -1.4492502409442354e-06  -5.1441245687562462e-07  -1.8231644469982190e-07  -6.3829454062737521e-08  -2.0125380466014196e-08  0.0000000000000000e+00  0.0000000000000000e+00  -2.8461414366661990e-08  -9.0267449605287836e-08  -2.5782837863029958e-07  -7.2745402780487497e-07  -2.0493449556459551e-06  -5.7721917275645438e-06  -1.6257572016423323e-05  -4.5789797810090939e-05  -1.2896736900351339e-04  -3.6323316620894339e-04  -1.0229969261066354e-03  -2.8807867572434309e-03  -8.1093639291456993e-03  -2.2801492616552628e-02  -6.3845356909959350e-02  -5.4981838087839296e-02  9.6771175534275999e-02  3.7789622993430451e-02  1.4932470976032326e-02  9.4235269388808218e-03  1.4932470976032236e-02  3.7789622993429049e-02  9.6771175534272780e-02  -5.4981838087838408e-02  -6.3845356909960016e-02  -2.2801492616553135e-02  -8.1093639291458831e-03  -2.8807867572434886e-03  -1.0229969261066614e-03  -3.6323316620895098e-04  -1.2896736900351553e-04  -4.5789797810092192e-05  -1.6257572016423944e-05  -5.7721917275647073e-06  -2.0493449556459928e-06  -7.2745402780487603e-07  -2.5782837863030725e-07  -9.0267449605290761e-08  -2.8461414366662178e-08  0.0000000000000000e+00  0.0000000000000000e+00  -2.0125380466009495e-08  -6.3829454062735271e-08  -1.8231644469983164e-07  -5.1441245687566263e-07  -1.4492502409442992e-06  -4.0823990774976420e-06  -1.1500760768912969e-05  -3.2407021503135498e-05  -9.1361772629716887e-05  -2.5782887626813513e-04  -7.2914515256119301e-04  -2.0710481868857567e-03  -5.9355704541863858e-03  -1.7323644916256733e-02  -5.2365217162051093e-02  -4.7284829438441353e-02  8.2311925997107668e-02  2.9373167415212446e-02  1.1016982008594934e-02  6.8136156634224544e-03  1.1016982008594607e-02  2.9373167415211829e-02  8.2311925997105323e-02  -4.7284829438444170e-02  -5.2365217162052557e-02  -1.7323644916257236e-02  -5.9355704541865541e-03  -2.0710481868857944e-03  -7.2914515256121328e-04  -2.5782887626814245e-04  -9.1361772629717998e-05  -3.2407021503135918e-05  -1.1500760768913603e-05  -4.0823990774978097e-06  -1.4492502409442285e-06  -5.1441245687563002e-07  -1.8231644469983511e-07  -6.3829454062731830e-08  -2.0125380466008386e-08  0.0000000000000000e+00  0.0000000000000000e+00  0.0000000000000000e+00  0.0000000000000000e+00  0.0000000000000000e+00  0.0000000000000000e+00  0.0000000000000000e+00  0.0000000000000000e+00  0.0000000000000000e+00  0.0000000000000000e+00  0.0000000000000000e+00  0.0000000000000000e+00  0.0000000000000000e+00  0.0000000000000000e+00  0.0000000000000000e+00  0.0000000000000000e+00  0.0000000000000000e+00  0.0000000000000000e+00  0.0000000000000000e+00  0.0000000000000000e+00  0.0000000000000000e+00  0.0000000000000000e+00  0.0000000000000000e+00  0.0000000000000000e+00  0.0000000000000000e+00  0.0000000000000000e+00  0.0000000000000000e+00  0.0000000000000000e+00  0.0000000000000000e+00  0.0000000000000000e+00  0.0000000000000000e+00  0.0000000000000000e+00  0.0000000000000000e+00  0.0000000000000000e+00  0.0000000000000000e+00  0.0000000000000000e+00  0.0000000000000000e+00  0.0000000000000000e+00  0.0000000000000000e+00  0.0000000000000000e+00  0.0000000000000000e+00  0.0000000000000000e+00  0.0000000000000000e+00  0.0000000000000000e+00  0.0000000000000000e+00  0.0000000000000000e+00  0.0000000000000000e+00  0.0000000000000000e+00  0.0000000000000000e+00  0.0000000000000000e+00  0.0000000000000000e+00  0.0000000000000000e+00  0.0000000000000000e+00  0.0000000000000000e+00  0.0000000000000000e+00  0.0000000000000000e+00  0.0000000000000000e+00  0.0000000000000000e+00  0.0000000000000000e+00  0.0000000000000000e+00  0.0000000000000000e+00  0.0000000000000000e+00  0.0000000000000000e+00  0.0000000000000000e+00  0.0000000000000000e+00  0.0000000000000000e+00  0.0000000000000000e+00  0.0000000000000000e+00  0.0000000000000000e+00  0.0000000000000000e+00  0.0000000000000000e+00  0.0000000000000000e+00  0.0000000000000000e+00  0.0000000000000000e+00  0.0000000000000000e+00  0.0000000000000000e+00  0.0000000000000000e+00  0.0000000000000000e+00  0.0000000000000000e+00  0.0000000000000000e+00  0.0000000000000000e+00  0.0000000000000000e+00  0.0000000000000000e+00  0.0000000000000000e+00  -2.8461414366662572e-08  -9.0267449605293898e-08  -2.5782837863029481e-07  -7.2745402780485189e-07  -2.0493449556459314e-06  -5.7721917275641990e-06  -1.6257572016421023e-05  -4.5789797810091149e-05  -1.2896736900351358e-04  -3.6323316620894848e-04  -1.0229969261066367e-03  -2.8807867572434053e-03  -8.1093639291456802e-03  -2.2801492616552628e-02  -6.3845356909958767e-02  -5.4981838087840636e-02  9.6771175534275472e-02  3.7789622993430513e-02  1.4932470976031951e-02  9.4235269388813908e-03  1.4932470976032288e-02  3.7789622993428744e-02  9.6771175534273016e-02  -5.4981838087838616e-02  -6.3845356909960321e-02  -2.2801492616553183e-02  -8.1093639291458935e-03  -2.8807867572434934e-03  -1.0229969261066603e-03  -3.6323316620895136e-04  -1.2896736900351485e-04  -4.5789797810091562e-05  -1.6257572016423957e-05  -5.7721917275647640e-06  -2.0493449556459898e-06  -7.2745402780485655e-07  -2.5782837863029555e-07  -9.0267449605287915e-08  -2.8461414366662344e-08  0.0000000000000000e+00  0.0000000000000000e+00  -4.0250275662656319e-08  -1.2765599650929767e-07  -3.6461590497202559e-07  -1.0287259188016241e-06  -2.8979234966179431e-06  -8.1614352383222982e-06  -2.2981921023058461e-05  -6.4699802834338694e-05  -1.8205770474260779e-04  -5.1177694960724324e-04  -1.4356713280650624e-03  -4.0102633143565963e-03  -1.1102761529020734e-02  -3.0168848379500325e-02  -7.8666261633573098e-02  -6.4555178984410558e-02  1.1495454936852409e-01  4.8956906121129629e-02  2.0297544885819249e-02  1.3048312268791192e-02  2.0297544885819797e-02  4.8956906121128158e-02  1.1495454936852295e-01  -6.4555178984409559e-02  -7.8666261633573487e-02  -3.0168848379500807e-02  -1.1102761529020939e-02  -4.0102633143566805e-03  -1.4356713280651039e-03  -5.1177694960725451e-04  -1.8205770474260865e-04  -6.4699802834339358e-05  -2.2981921023059657e-05  -8.1614352383227099e-06  -2.8979234966180506e-06  -1.0287259188015894e-06  -3.6461590497201934e-07  -1.2765599650930887e-07  -4.0250275662657907e-08  0.0000000000000000e+00  0.0000000000000000e+00  -2.8461414366658337e-08  -9.0267449605286010e-08  -2.5782837863030667e-07  -7.2745402780490101e-07  -2.0493449556459894e-06  -5.7721917275644405e-06  -1.6257572016423276e-05  -4.5789797810090152e-05  -1.2896736900351301e-04  -3.6323316620894550e-04  -1.0229969261066445e-03  -2.8807867572434582e-03  -8.1093639291457808e-03  -2.2801492616552805e-02  -6.3845356909959114e-02  -5.4981838087837201e-02  9.6771175534274556e-02  3.7789622993429244e-02  1.4932470976031518e-02  9.4235269388803500e-03  1.4932470976031110e-02  3.7789622993428695e-02  9.6771175534274889e-02  -5.4981838087837263e-02  -6.3845356909960974e-02  -2.2801492616553322e-02  -8.1093639291459178e-03  -2.8807867572434903e-03  -1.0229969261066631e-03  -3.6323316620895174e-04  -1.2896736900351493e-04  -4.5789797810091189e-05  -1.6257572016423899e-05  -5.7721917275646692e-06  -2.0493449556459953e-06  -7.2745402780486364e-07  -2.5782837863031408e-07  -9.0267449605292561e-08  -2.8461414366659968e-08  0.0000000000000000e+00  0.0000000000000000e+00  0.0000000000000000e+00  0.0000000000000000e+00  0.0000000000000000e+00  0.0000000000000000e+00  0.0000000000000000e+00  0.0000000000000000e+00  0.0000000000000000e+00  0.0000000000000000e+00  0.0000000000000000e+00  0.0000000000000000e+00  0.0000000000000000e+00  0.0000000000000000e+00  0.0000000000000000e+00  0.0000000000000000e+00  0.0000000000000000e+00  0.0000000000000000e+00  0.0000000000000000e+00  0.0000000000000000e+00  0.0000000000000000e+00  0.0000000000000000e+00  0.0000000000000000e+00  0.0000000000000000e+00  0.0000000000000000e+00  0.0000000000000000e+00  0.0000000000000000e+00  0.0000000000000000e+00  0.0000000000000000e+00  0.0000000000000000e+00  0.0000000000000000e+00  0.0000000000000000e+00  0.0000000000000000e+00  0.0000000000000000e+00  0.0000000000000000e+00  0.0000000000000000e+00  0.0000000000000000e+00  0.0000000000000000e+00  0.0000000000000000e+00  0.0000000000000000e+00  0.0000000000000000e+00  0.0000000000000000e+00  0.0000000000000000e+00  0.0000000000000000e+00  0.0000000000000000e+00  0.0000000000000000e+00  0.0000000000000000e+00  0.0000000000000000e+00  0.0000000000000000e+00  0.0000000000000000e+00  0.0000000000000000e+00  0.0000000000000000e+00  0.0000000000000000e+00  0.0000000000000000e+00  0.0000000000000000e+00  0.0000000000000000e+00  0.0000000000000000e+00  0.0000000000000000e+00  0.0000000000000000e+00  0.0000000000000000e+00  0.0000000000000000e+00  0.0000000000000000e+00  0.0000000000000000e+00  0.0000000000000000e+00  0.0000000000000000e+00  0.0000000000000000e+00  0.0000000000000000e+00  0.0000000000000000e+00  0.0000000000000000e+00  0.0000000000000000e+00  0.0000000000000000e+00  0.0000000000000000e+00  0.0000000000000000e+00  0.0000000000000000e+00  0.0000000000000000e+00  0.0000000000000000e+00  0.0000000000000000e+00  0.0000000000000000e+00  0.0000000000000000e+00  0.0000000000000000e+00  0.0000000000000000e+00  0.0000000000000000e+00  0.0000000000000000e+00  0.0000000000000000e+00  -2.0125380466010673e-08  -6.3829454062732982e-08  -1.8231644469981682e-07  -5.1441245687566888e-07  -1.4492502409443168e-06  -4.0823990774986288e-06  -1.1500760768901260e-05  -3.2407021503132835e-05  -9.1361772629717646e-05  -2.5782887626813486e-04  -7.2914515256119301e-04  -2.0710481868857506e-03  -5.9355704541864517e-03  -1.7323644916256899e-02  -5.2365217162052113e-02  -4.7284829438448091e-02  8.2311925997106974e-02  2.9373167415213706e-02  1.1016982008594899e-02  6.8136156634233721e-03  1.1016982008595301e-02  2.9373167415212852e-02  8.2311925997105295e-02  -4.7284829438444156e-02  -5.2365217162052134e-02  -1.7323644916257139e-02  -5.9355704541865567e-03  -2.0710481868858144e-03  -7.2914515256121480e-04  -2.5782887626813866e-04  -9.1361772629716575e-05  -3.2407021503135322e-05  -1.1500760768913376e-05  -4.0823990774977852e-06  -1.4492502409442285e-06  -5.1441245687562335e-07  -1.8231644469982050e-07  -6.3829454062735377e-08  -2.0125380466008095e-08  0.0000000000000000e+00  0.0000000000000000e+00  -2.8461414366658433e-08  -9.0267449605276838e-08  -2.5782837863029958e-07  -7.2745402780483293e-07  -2.0493449556458712e-06  -5.7721917275643092e-06  -1.6257572016421765e-05  -4.5789797810090905e-05  -1.2896736900351474e-04  -3.6323316620894729e-04  -1.0229969261066391e-03  -2.8807867572434379e-03  -8.1093639291457600e-03  -2.2801492616552819e-02  -6.3845356909959614e-02  -5.4981838087840823e-02  9.6771175534274764e-02  3.7789622993429313e-02  1.4932470976030862e-02  9.4235269388803812e-03  1.4932470976030784e-02  3.7789622993428751e-02  9.6771175534274209e-02  -5.4981838087837333e-02  -6.3845356909960002e-02  -2.2801492616553128e-02  -8.1093639291458797e-03  -2.8807867572434899e-03  -1.0229969261066623e-03  -3.6323316620894881e-04  -1.2896736900351279e-04  -4.5789797810091284e-05  -1.6257572016423591e-05  -5.7721917275646031e-06  -2.0493449556459712e-06  -7.2745402780485898e-07  -2.5782837863029672e-07  -9.0267449605285930e-08  -2.8461414366659399e-08  0.0000000000000000e+00  0.0000000000000000e+00  -2.0125380466007278e-08  -6.3829454062737680e-08  -1.8231644469983302e-07  -5.1441245687562420e-07  -1.4492502409441558e-06  -4.0823990774974159e-06  -1.1500760768912565e-05  -3.2407021503134434e-05  -9.1361772629716033e-05  -2.5782887626813356e-04  -7.2914515256119561e-04  -2.0710481868857879e-03  -5.9355704541865038e-03  -1.7323644916256948e-02  -5.2365217162051350e-02  -4.7284829438446162e-02  8.2311925997106294e-02  2.9373167415212575e-02  1.1016982008594110e-02  6.8136156634216469e-03  1.1016982008594347e-02  2.9373167415211839e-02  8.2311925997106114e-02  -4.7284829438445759e-02  -5.2365217162053321e-02  -1.7323644916257343e-02  -5.9355704541865992e-03  -2.0710481868858126e-03  -7.2914515256121209e-04  -2.5782887626813714e-04  -9.1361772629715952e-05  -3.2407021503135220e-05  -1.1500760768913498e-05  -4.0823990774978419e-06  -1.4492502409442367e-06  -5.1441245687562621e-07  -1.8231644469982767e-07  -6.3829454062736555e-08  -2.0125380466009342e-08  0.0000000000000000e+00  0.0000000000000000e+00  0.0000000000000000e+00  0.0000000000000000e+00  0.0000000000000000e+00  0.0000000000000000e+00  0.0000000000000000e+00  0.0000000000000000e+00  0.0000000000000000e+00  0.0000000000000000e+00  0.0000000000000000e+00  0.0000000000000000e+00  0.0000000000000000e+00  0.0000000000000000e+00  0.0000000000000000e+00  0.0000000000000000e+00  0.0000000000000000e+00  0.0000000000000000e+00  0.0000000000000000e+00  0.0000000000000000e+00  0.0000000000000000e+00  0.0000000000000000e+00  0.0000000000000000e+00  0.0000000000000000e+00  0.0000000000000000e+00  0.0000000000000000e+00  0.0000000000000000e+00  0.0000000000000000e+00  0.0000000000000000e+00  0.0000000000000000e+00  0.0000000000000000e+00  0.0000000000000000e+00  0.0000000000000000e+00  0.0000000000000000e+00  0.0000000000000000e+00  0.0000000000000000e+00  0.0000000000000000e+00  0.0000000000000000e+00  0.0000000000000000e+00  0.000000000000000