<?xml version="1.0"?>
<VTKFile type="UnstructuredGrid"  version="0.1"  >
<UnstructuredGrid>
<Piece  NumberOfPoints="1025" NumberOfCells="3840">
<Points>
<DataArray  type="Float64"  NumberOfComponents="3"  format="ascii">0 0 0  0.25 0 0  0.5 0 0  0.75 0 0  1 0 0  1.25 0 0  1.5 0 0  1.75 0 0  2 0 0  2.25 0 0  2.5 0 0  2.75 0 0  3 0 0  3.25 0 0  3.5 0 0  3.75 0 0  4 0 0  4.25 0 0  4.5 0 0  4.75 0 0  5 0 0  5.25 0 0  5.5 0 0  5.75 0 0  6 0 0  6.25 0 0  6.5 0 0  6.75 0 0  7 0 0  7.25 0 0  7.5 0 0  7.75 0 0  8 0 0  8.25 0 0  8.5 0 0  8.75 0 0  9 0 0  9.25 0 0  9.5 0 0  9.75 0 0  10 0 0  0 0.25 0  0.25 0.25 0  0.5 0.25 0  0.75 0.25 0  1 0.25 0  1.25 0.25 0  1.5 0.25 0  1.75 0.25 0  2 0.25 0  2.25 0.25 0  2.5 0.25 0  2.75 0.25 0  3 0.25 0  3.25 0.25 0  3.5 0.25 0  3.75 0.25 0  4 0.25 0  4.25 0.25 0  4.5 0.25 0  4.75 0.25 0  5 0.25 0  5.25 0.25 0  5.5 0.25 0  5.75 0.25 0  6 0.25 0  6.25 0.25 0  6.5 0.25 0  6.75 0.25 0  7 0.25 0  7.25 0.25 0  7.5 0.25 0  7.75 0.25 0  8 0.25 0  8.25 0.25 0  8.5 0.25 0  8.75 0.25 0  9 0.25 0  9.25 0.25 0  9.5 0.25 0  9.75 0.25 0  10 0.25 0  0 0.5 0  0.25 0.5 0  0.5 0.5 0  0.75 0.5 0  1 0.5 0  1.25 0.5 0  1.5 0.5 0  1.75 0.5 0  2 0.5 0  2.25 0.5 0  2.5 0.5 0  2.75 0.5 0  3 0.5 0  3.25 0.5 0  3.5 0.5 0  3.75 0.5 0  4 0.5 0  4.25 0.5 0  4.5 0.5 0  4.75 0.5 0  5 0.5 0  5.25 0.5 0  5.5 0.5 0  5.75 0.5 0  6 0.5 0  6.25 0.5 0  6.5 0.5 0  6.75 0.5 0  7 0.5 0  7.25 0.5 0  7.5 0.5 0  7.75 0.5 0  8 0.5 0  8.25 0.5 0  8.5 0.5 0  8.75 0.5 0  9 0.5 0  9.25 0.5 0  9.5 0.5 0  9.75 0.5 0  10 0.5 0  0 0.75 0  0.25 0.75 0  0.5 0.75 0  0.75 0.75 0  1 0.75 0  1.25 0.75 0  1.5 0.75 0  1.75 0.75 0  2 0.75 0  2.25 0.75 0  2.5 0.75 0  2.75 0.75 0  3 0.75 0  3.25 0.75 0  3.5 0.75 0  3.75 0.75 0  4 0.75 0  4.25 0.75 0  4.5 0.75 0  4.75 0.75 0  5 0.75 0  5.25 0.75 0  5.5 0.75 0  5.75 0.75 0  6 0.75 0  6.25 0.75 0  6.5 0.75 0  6.75 0.75 0  7 0.75 0  7.25 0.75 0  7.5 0.75 0  7.75 0.75 0  8 0.75 0  8.25 0.75 0  8.5 0.75 0  8.75 0.75 0  9 0.75 0  9.25 0.75 0  9.5 0.75 0  9.75 0.75 0  10 0.75 0  0 1 0  0.25 1 0  0.5 1 0  0.75 1 0  1 1 0  1.25 1 0  1.5 1 0  1.75 1 0  2 1 0  2.25 1 0  2.5 1 0  2.75 1 0  3 1 0  3.25 1 0  3.5 1 0  3.75 1 0  4 1 0  4.25 1 0  4.5 1 0  4.75 1 0  5 1 0  5.25 1 0  5.5 1 0  5.75 1 0  6 1 0  6.25 1 0  6.5 1 0  6.75 1 0  7 1 0  7.25 1 0  7.5 1 0  7.75 1 0  8 1 0  8.25 1 0  8.5 1 0  8.75 1 0  9 1 0  9.25 1 0  9.5 1 0  9.75 1 0  10 1 0  0 0 0.25  0.25 0 0.25  0.5 0 0.25  0.75 0 0.25  1 0 0.25  1.25 0 0.25  1.5 0 0.25  1.75 0 0.25  2 0 0.25  2.25 0 0.25  2.5 0 0.25  2.75 0 0.25  3 0 0.25  3.25 0 0.25  3.5 0 0.25  3.75 0 0.25  4 0 0.25  4.25 0 0.25  4.5 0 0.25  4.75 0 0.25  5 0 0.25  5.25 0 0.25  5.5 0 0.25  5.75 0 0.25  6 0 0.25  6.25 0 0.25  6.5 0 0.25  6.75 0 0.25  7 0 0.25  7.25 0 0.25  7.5 0 0.25  7.75 0 0.25  8 0 0.25  8.25 0 0.25  8.5 0 0.25  8.75 0 0.25  9 0 0.25  9.25 0 0.25  9.5 0 0.25  9.75 0 0.25  10 0 0.25  0 0.25 0.25  0.25 0.25 0.25  0.5 0.25 0.25  0.75 0.25 0.25  1 0.25 0.25  1.25 0.25 0.25  1.5 0.25 0.25  1.75 0.25 0.25  2 0.25 0.25  2.25 0.25 0.25  2.5 0.25 0.25  2.75 0.25 0.25  3 0.25 0.25  3.25 0.25 0.25  3.5 0.25 0.25  3.75 0.25 0.25  4 0.25 0.25  4.25 0.25 0.25  4.5 0.25 0.25  4.75 0.25 0.25  5 0.25 0.25  5.25 0.25 0.25  5.5 0.25 0.25  5.75 0.25 0.25  6 0.25 0.25  6.25 0.25 0.25  6.5 0.25 0.25  6.75 0.25 0.25  7 0.25 0.25  7.25 0.25 0.25  7.5 0.25 0.25  7.75 0.25 0.25  8 0.25 0.25  8.25 0.25 0.25  8.5 0.25 0.25  8.75 0.25 0.25  9 0.25 0.25  9.25 0.25 0.25  9.5 0.25 0.25  9.75 0.25 0.25  10 0.25 0.25  0 0.5 0.25  0.25 0.5 0.25  0.5 0.5 0.25  0.75 0.5 0.25  1 0.5 0.25  1.25 0.5 0.25  1.5 0.5 0.25  1.75 0.5 0.25  2 0.5 0.25  2.25 0.5 0.25  2.5 0.5 0.25  2.75 0.5 0.25  3 0.5 0.25  3.25 0.5 0.25  3.5 0.5 0.25  3.75 0.5 0.25  4 0.5 0.25  4.25 0.5 0.25  4.5 0.5 0.25  4.75 0.5 0.25  5 0.5 0.25  5.25 0.5 0.25  5.5 0.5 0.25  5.75 0.5 0.25  6 0.5 0.25  6.25 0.5 0.25  6.5 0.5 0.25  6.75 0.5 0.25  7 0.5 0.25  7.25 0.5 0.25  7.5 0.5 0.25  7.75 0.5 0.25  8 0.5 0.25  8.25 0.5 0.25  8.5 0.5 0.25  8.75 0.5 0.25  9 0.5 0.25  9.25 0.5 0.25  9.5 0.5 0.25  9.75 0.5 0.25  10 0.5 0.25  0 0.75 0.25  0.25 0.75 0.25  0.5 0.75 0.25  0.75 0.75 0.25  1 0.75 0.25  1.25 0.75 0.25  1.5 0.75 0.25  1.75 0.75 0.25  2 0.75 0.25  2.25 0.75 0.25  2.5 0.75 0.25  2.75 0.75 0.25  3 0.75 0.25  3.25 0.75 0.25  3.5 0.75 0.25  3.75 0.75 0.25  4 0.75 0.25  4.25 0.75 0.25  4.5 0.75 0.25  4.75 0.75 0.25  5 0.75 0.25  5.25 0.75 0.25  5.5 0.75 0.25  5.75 0.75 0.25  6 0.75 0.25  6.25 0.75 0.25  6.5 0.75 0.25  6.75 0.75 0.25  7 0.75 0.25  7.25 0.75 0.25  7.5 0.75 0.25  7.75 0.75 0.25  8 0.75 0.25  8.25 0.75 0.25  8.5 0.75 0.25  8.75 0.75 0.25  9 0.75 0.25  9.25 0.75 0.25  9.5 0.75 0.25  9.75 0.75 0.25  10 0.75 0.25  0 1 0.25  0.25 1 0.25  0.5 1 0.25  0.75 1 0.25  1 1 0.25  1.25 1 0.25  1.5 1 0.25  1.75 1 0.25  2 1 0.25  2.25 1 0.25  2.5 1 0.25  2.75 1 0.25  3 1 0.25  3.25 1 0.25  3.5 1 0.25  3.75 1 0.25  4 1 0.25  4.25 1 0.25  4.5 1 0.25  4.75 1 0.25  5 1 0.25  5.25 1 0.25  5.5 1 0.25  5.75 1 0.25  6 1 0.25  6.25 1 0.25  6.5 1 0.25  6.75 1 0.25  7 1 0.25  7.25 1 0.25  7.5 1 0.25  7.75 1 0.25  8 1 0.25  8.25 1 0.25  8.5 1 0.25  8.75 1 0.25  9 1 0.25  9.25 1 0.25  9.5 1 0.25  9.75 1 0.25  10 1 0.25  0 0 0.5  0.25 0 0.5  0.5 0 0.5  0.75 0 0.5  1 0 0.5  1.25 0 0.5  1.5 0 0.5  1.75 0 0.5  2 0 0.5  2.25 0 0.5  2.5 0 0.5  2.75 0 0.5  3 0 0.5  3.25 0 0.5  3.5 0 0.5  3.75 0 0.5  4 0 0.5  4.25 0 0.5  4.5 0 0.5  4.75 0 0.5  5 0 0.5  5.25 0 0.5  5.5 0 0.5  5.75 0 0.5  6 0 0.5  6.25 0 0.5  6.5 0 0.5  6.75 0 0.5  7 0 0.5  7.25 0 0.5  7.5 0 0.5  7.75 0 0.5  8 0 0.5  8.25 0 0.5  8.5 0 0.5  8.75 0 0.5  9 0 0.5  9.25 0 0.5  9.5 0 0.5  9.75 0 0.5  10 0 0.5  0 0.25 0.5  0.25 0.25 0.5  0.5 0.25 0.5  0.75 0.25 0.5  1 0.25 0.5  1.25 0.25 0.5  1.5 0.25 0.5  1.75 0.25 0.5  2 0.25 0.5  2.25 0.25 0.5  2.5 0.25 0.5  2.75 0.25 0.5  3 0.25 0.5  3.25 0.25 0.5  3.5 0.25 0.5  3.75 0.25 0.5  4 0.25 0.5  4.25 0.25 0.5  4.5 0.25 0.5  4.75 0.25 0.5  5 0.25 0.5  5.25 0.25 0.5  5.5 0.25 0.5  5.75 0.25 0.5  6 0.25 0.5  6.25 0.25 0.5  6.5 0.25 0.5  6.75 0.25 0.5  7 0.25 0.5  7.25 0.25 0.5  7.5 0.25 0.5  7.75 0.25 0.5  8 0.25 0.5  8.25 0.25 0.5  8.5 0.25 0.5  8.75 0.25 0.5  9 0.25 0.5  9.25 0.25 0.5  9.5 0.25 0.5  9.75 0.25 0.5  10 0.25 0.5  0 0.5 0.5  0.25 0.5 0.5  0.5 0.5 0.5  0.75 0.5 0.5  1 0.5 0.5  1.25 0.5 0.5  1.5 0.5 0.5  1.75 0.5 0.5  2 0.5 0.5  2.25 0.5 0.5  2.5 0.5 0.5  2.75 0.5 0.5  3 0.5 0.5  3.25 0.5 0.5  3.5 0.5 0.5  3.75 0.5 0.5  4 0.5 0.5  4.25 0.5 0.5  4.5 0.5 0.5  4.75 0.5 0.5  5 0.5 0.5  5.25 0.5 0.5  5.5 0.5 0.5  5.75 0.5 0.5  6 0.5 0.5  6.25 0.5 0.5  6.5 0.5 0.5  6.75 0.5 0.5  7 0.5 0.5  7.25 0.5 0.5  7.5 0.5 0.5  7.75 0.5 0.5  8 0.5 0.5  8.25 0.5 0.5  8.5 0.5 0.5  8.75 0.5 0.5  9 0.5 0.5  9.25 0.5 0.5  9.5 0.5 0.5  9.75 0.5 0.5  10 0.5 0.5  0 0.75 0.5  0.25 0.75 0.5  0.5 0.75 0.5  0.75 0.75 0.5  1 0.75 0.5  1.25 0.75 0.5  1.5 0.75 0.5  1.75 0.75 0.5  2 0.75 0.5  2.25 0.75 0.5  2.5 0.75 0.5  2.75 0.75 0.5  3 0.75 0.5  3.25 0.75 0.5  3.5 0.75 0.5  3.75 0.75 0.5  4 0.75 0.5  4.25 0.75 0.5  4.5 0.75 0.5  4.75 0.75 0.5  5 0.75 0.5  5.25 0.75 0.5  5.5 0.75 0.5  5.75 0.75 0.5  6 0.75 0.5  6.25 0.75 0.5  6.5 0.75 0.5  6.75 0.75 0.5  7 0.75 0.5  7.25 0.75 0.5  7.5 0.75 0.5  7.75 0.75 0.5  8 0.75 0.5  8.25 0.75 0.5  8.5 0.75 0.5  8.75 0.75 0.5  9 0.75 0.5  9.25 0.75 0.5  9.5 0.75 0.5  9.75 0.75 0.5  10 0.75 0.5  0 1 0.5  0.25 1 0.5  0.5 1 0.5  0.75 1 0.5  1 1 0.5  1.25 1 0.5  1.5 1 0.5  1.75 1 0.5  2 1 0.5  2.25 1 0.5  2.5 1 0.5  2.75 1 0.5  3 1 0.5  3.25 1 0.5  3.5 1 0.5  3.75 1 0.5  4 1 0.5  4.25 1 0.5  4.5 1 0.5  4.75 1 0.5  5 1 0.5  5.25 1 0.5  5.5 1 0.5  5.75 1 0.5  6 1 0.5  6.25 1 0.5  6.5 1 0.5  6.75 1 0.5  7 1 0.5  7.25 1 0.5  7.5 1 0.5  7.75 1 0.5  8 1 0.5  8.25 1 0.5  8.5 1 0.5  8.75 1 0.5  9 1 0.5  9.25 1 0.5  9.5 1 0.5  9.75 1 0.5  10 1 0.5  0 0 0.75  0.25 0 0.75  0.5 0 0.75  0.75 0 0.75  1 0 0.75  1.25 0 0.75  1.5 0 0.75  1.75 0 0.75  2 0 0.75  2.25 0 0.75  2.5 0 0.75  2.75 0 0.75  3 0 0.75  3.25 0 0.75  3.5 0 0.75  3.75 0 0.75  4 0 0.75  4.25 0 0.75  4.5 0 0.75  4.75 0 0.75  5 0 0.75  5.25 0 0.75  5.5 0 0.75  5.75 0 0.75  6 0 0.75  6.25 0 0.75  6.5 0 0.75  6.75 0 0.75  7 0 0.75  7.25 0 0.75  7.5 0 0.75  7.75 0 0.75  8 0 0.75  8.25 0 0.75  8.5 0 0.75  8.75 0 0.75  9 0 0.75  9.25 0 0.75  9.5 0 0.75  9.75 0 0.75  10 0 0.75  0 0.25 0.75  0.25 0.25 0.75  0.5 0.25 0.75  0.75 0.25 0.75  1 0.25 0.75  1.25 0.25 0.75  1.5 0.25 0.75  1.75 0.25 0.75  2 0.25 0.75  2.25 0.25 0.75  2.5 0.25 0.75  2.75 0.25 0.75  3 0.25 0.75  3.25 0.25 0.75  3.5 0.25 0.75  3.75 0.25 0.75  4 0.25 0.75  4.25 0.25 0.75  4.5 0.25 0.75  4.75 0.25 0.75  5 0.25 0.75  5.25 0.25 0.75  5.5 0.25 0.75  5.75 0.25 0.75  6 0.25 0.75  6.25 0.25 0.75  6.5 0.25 0.75  6.75 0.25 0.75  7 0.25 0.75  7.25 0.25 0.75  7.5 0.25 0.75  7.75 0.25 0.75  8 0.25 0.75  8.25 0.25 0.75  8.5 0.25 0.75  8.75 0.25 0.75  9 0.25 0.75  9.25 0.25 0.75  9.5 0.25 0.75  9.75 0.25 0.75  10 0.25 0.75  0 0.5 0.75  0.25 0.5 0.75  0.5 0.5 0.75  0.75 0.5 0.75  1 0.5 0.75  1.25 0.5 0.75  1.5 0.5 0.75  1.75 0.5 0.75  2 0.5 0.75  2.25 0.5 0.75  2.5 0.5 0.75  2.75 0.5 0.75  3 0.5 0.75  3.25 0.5 0.75  3.5 0.5 0.75  3.75 0.5 0.75  4 0.5 0.75  4.25 0.5 0.75  4.5 0.5 0.75  4.75 0.5 0.75  5 0.5 0.75  5.25 0.5 0.75  5.5 0.5 0.75  5.75 0.5 0.75  6 0.5 0.75  6.25 0.5 0.75  6.5 0.5 0.75  6.75 0.5 0.75  7 0.5 0.75  7.25 0.5 0.75  7.5 0.5 0.75  7.75 0.5 0.75  8 0.5 0.75  8.25 0.5 0.75  8.5 0.5 0.75  8.75 0.5 0.75  9 0.5 0.75  9.25 0.5 0.75  9.5 0.5 0.75  9.75 0.5 0.75  10 0.5 0.75  0 0.75 0.75  0.25 0.75 0.75  0.5 0.75 0.75  0.75 0.75 0.75  1 0.75 0.75  1.25 0.75 0.75  1.5 0.75 0.75  1.75 0.75 0.75  2 0.75 0.75  2.25 0.75 0.75  2.5 0.75 0.75  2.75 0.75 0.75  3 0.75 0.75  3.25 0.75 0.75  3.5 0.75 0.75  3.75 0.75 0.75  4 0.75 0.75  4.25 0.75 0.75  4.5 0.75 0.75  4.75 0.75 0.75  5 0.75 0.75  5.25 0.75 0.75  5.5 0.75 0.75  5.75 0.75 0.75  6 0.75 0.75  6.25 0.75 0.75  6.5 0.75 0.75  6.75 0.75 0.75  7 0.75 0.75  7.25 0.75 0.75  7.5 0.75 0.75  7.75 0.75 0.75  8 0.75 0.75  8.25 0.75 0.75  8.5 0.75 0.75  8.75 0.75 0.75  9 0.75 0.75  9.25 0.75 0.75  9.5 
[...]
<PointData  Vectors="f_88"> 
<DataArray  type="Float64"  Name="f_88"  NumberOfComponents="3" format="ascii">9.9999999999795797e-01 0.0000000000000000e+00 0.0000000000000000e+00  0.0000000000000000e+00 0.0000000000000000e+00 0.0000000000000000e+00  0.0000000000000000e+00 0.0000000000000000e+00 0.0000000000000000e+00  0.0000000000000000e+00 0.0000000000000000e+00 0.0000000000000000e+00  0.0000000000000000e+00 0.0000000000000000e+00 0.0000000000000000e+00  0.0000000000000000e+00 0.0000000000000000e+00 0.0000000000000000e+00  0.0000000000000000e+00 0.0000000000000000e+00 0.0000000000000000e+00  0.0000000000000000e+00 0.0000000000000000e+00 0.0000000000000000e+00  0.0000000000000000e+00 0.0000000000000000e+00 0.0000000000000000e+00  0.0000000000000000e+00 0.0000000000000000e+00 0.0000000000000000e+00  0.0000000000000000e+00 0.0000000000000000e+00 0.0000000000000000e+00  0.0000000000000000e+00 0.0000000000000000e+00 0.0000000000000000e+00  0.0000000000000000e+00 0.0000000000000000e+00 0.0000000000000000e+00  0.0000000000000000e+00 0.0000000000000000e+00 0.0000000000000000e+00  0.0000000000000000e+00 0.0000000000000000e+00 0.0000000000000000e+00  0.0000000000000000e+00 0.0000000000000000e+00 0.0000000000000000e+00  0.0000000000000000e+00 0.0000000000000000e+00 0.0000000000000000e+00  0.0000000000000000e+00 0.0000000000000000e+00 0.0000000000000000e+00  0.0000000000000000e+00 0.0000000000000000e+00 0.0000000000000000e+00  0.0000000000000000e+00 0.0000000000000000e+00 0.0000000000000000e+00  0.0000000000000000e+00 0.0000000000000000e+00 0.0000000000000000e+00  0.0000000000000000e+00 0.0000000000000000e+00 0.0000000000000000e+00  0.0000000000000000e+00 0.0000000000000000e+00 0.0000000000000000e+00  0.0000000000000000e+00 0.0000000000000000e+00 0.0000000000000000e+00  0.0000000000000000e+00 0.0000000000000000e+00 0.0000000000000000e+00  0.0000000000000000e+00 0.0000000000000000e+00 0.0000000000000000e+00  0.0000000000000000e+00 0.0000000000000000e+00 0.0000000000000000e+00  0.0000000000000000e+00 0.0000000000000000e+00 0.0000000000000000e+00  0.0000000000000000e+00 0.0000000000000000e+00 0.0000000000000000e+00  0.0000000000000000e+00 0.0000000000000000e+00 0.0000000000000000e+00  0.0000000000000000e+00 0.0000000000000000e+00 0.0000000000000000e+00  0.0000000000000000e+00 0.0000000000000000e+00 0.0000000000000000e+00  0.0000000000000000e+00 0.0000000000000000e+00 0.0000000000000000e+00  0.0000000000000000e+00 0.0000000000000000e+00 0.0000000000000000e+00  0.0000000000000000e+00 0.0000000000000000e+00 0.0000000000000000e+00  0.0000000000000000e+00 0.0000000000000000e+00 0.0000000000000000e+00  0.0000000000000000e+00 0.0000000000000000e+00 0.0000000000000000e+00  0.0000000000000000e+00 0.0000000000000000e+00 0.0000000000000000e+00  0.0000000000000000e+00 0.0000000000000000e+00 0.0000000000000000e+00  0.0000000000000000e+00 0.0000000000000000e+00 0.0000000000000000e+00  0.0000000000000000e+00 0.0000000000000000e+00 0.0000000000000000e+00  9.9999999999795708e-01 0.0000000000000000e+00 0.0000000000000000e+00  0.0000000000000000e+00 0.0000000000000000e+00 0.0000000000000000e+00  0.0000000000000000e+00 0.0000000000000000e+00 0.0000000000000000e+00  0.0000000000000000e+00 0.0000000000000000e+00 0.0000000000000000e+00  0.0000000000000000e+00 0.0000000000000000e+00 0.0000000000000000e+00  0.0000000000000000e+00 0.0000000000000000e+00 0.0000000000000000e+00  0.0000000000000000e+00 0.0000000000000000e+00 0.0000000000000000e+00  0.0000000000000000e+00 0.0000000000000000e+00 0.0000000000000000e+00  0.0000000000000000e+00 0.0000000000000000e+00 0.0000000000000000e+00  0.0000000000000000e+00 0.0000000000000000e+00 0.0000000000000000e+00  0.0000000000000000e+00 0.0000000000000000e+00 0.0000000000000000e+00  0.0000000000000000e+00 0.0000000000000000e+00 0.0000000000000000e+00  0.0000000000000000e+00 0.0000000000000000e+00 0.0000000000000000e+00  0.0000000000000000e+00 0.0000000000000000e+00 0.0000000000000000e+00  0.0000000000000000e+00 0.0000000000000000e+00 0.0000000000000000e+00  0.0000000000000000e+00 0.0000000000000000e+00 0.0000000000000000e+00  0.0000000000000000e+00 0.0000000000000000e+00 0.0000000000000000e+00  0.0000000000000000e+00 0.0000000000000000e+00 0.0000000000000000e+00  0.0000000000000000e+00 0.0000000000000000e+00 0.0000000000000000e+00  0.0000000000000000e+00 0.0000000000000000e+00 0.0000000000000000e+00  0.0000000000000000e+00 0.0000000000000000e+00 0.0000000000000000e+00  0.0000000000000000e+00 0.0000000000000000e+00 0.0000000000000000e+00  0.0000000000000000e+00 0.0000000000000000e+00 0.0000000000000000e+00  0.0000000000000000e+00 0.0000000000000000e+00 0.0000000000000000e+00  0.0000000000000000e+00 0.0000000000000000e+00 0.0000000000000000e+00  0.0000000000000000e+00 0.0000000000000000e+00 0.0000000000000000e+00  0.0000000000000000e+00 0.0000000000000000e+00 0.0000000000000000e+00  0.0000000000000000e+00 0.0000000000000000e+00 0.0000000000000000e+00  0.0000000000000000e+00 0.0000000000000000e+00 0.0000000000000000e+00  0.0000000000000000e+00 0.0000000000000000e+00 0.0000000000000000e+00  0.0000000000000000e+00 0.0000000000000000e+00 0.0000000000000000e+00  0.0000000000000000e+00 0.0000000000000000e+00 0.0000000000000000e+00  0.0000000000000000e+00 0.0000000000000000e+00 0.0000000000000000e+00  0.0000000000000000e+00 0.0000000000000000e+00 0.0000000000000000e+00  0.0000000000000000e+00 0.0000000000000000e+00 0.0000000000000000e+00  0.0000000000000000e+00 0.0000000000000000e+00 0.0000000000000000e+00  0.0000000000000000e+00 0.0000000000000000e+00 0.0000000000000000e+00  0.0000000000000000e+00 0.0000000000000000e+00 0.0000000000000000e+00  0.0000000000000000e+00 0.0000000000000000e+00 0.0000000000000000e+00  0.0000000000000000e+00 0.0000000000000000e+00 0.0000000000000000e+00  0.0000000000000000e+00 0.0000000000000000e+00 0.0000000000000000e+00  9.9999999999795708e-01 0.0000000000000000e+00 0.0000000000000000e+00  0.0000000000000000e+00 0.0000000000000000e+00 0.0000000000000000e+00  0.0000000000000000e+00 0.0000000000000000e+00 0.0000000000000000e+00  0.0000000000000000e+00 0.0000000000000000e+00 0.0000000000000000e+00  0.0000000000000000e+00 0.0000000000000000e+00 0.0000000000000000e+00  0.0000000000000000e+00 0.0000000000000000e+00 0.0000000000000000e+00  0.0000000000000000e+00 0.0000000000000000e+00 0.0000000000000000e+00  0.0000000000000000e+00 0.0000000000000000e+00 0.0000000000000000e+00  0.0000000000000000e+00 0.0000000000000000e+00 0.0000000000000000e+00  0.0000000000000000e+00 0.0000000000000000e+00 0.0000000000000000e+00  0.0000000000000000e+00 0.0000000000000000e+00 0.0000000000000000e+00  0.0000000000000000e+00 0.0000000000000000e+00 0.0000000000000000e+00  0.0000000000000000e+00 0.0000000000000000e+00 0.0000000000000000e+00  0.0000000000000000e+00 0.0000000000000000e+00 0.0000000000000000e+00  0.0000000000000000e+00 0.0000000000000000e+00 0.0000000000000000e+00  0.0000000000000000e+00 0.0000000000000000e+00 0.0000000000000000e+00  0.0000000000000000e+00 0.0000000000000000e+00 0.0000000000000000e+00  0.0000000000000000e+00 0.0000000000000000e+00 0.0000000000000000e+00  0.0000000000000000e+00 0.0000000000000000e+00 0.0000000000000000e+00  0.0000000000000000e+00 0.0000000000000000e+00 0.0000000000000000e+00  0.0000000000000000e+00 0.0000000000000000e+00 0.0000000000000000e+00  0.0000000000000000e+00 0.0000000000000000e+00 0.0000000000000000e+00  0.0000000000000000e+00 0.0000000000000000e+00 0.0000000000000000e+00  0.0000000000000000e+00 0.0000000000000000e+00 0.0000000000000000e+00  0.0000000000000000e+00 0.0000000000000000e+00 0.0000000000000000e+00  0.0000000000000000e+00 0.0000000000000000e+00 0.0000000000000000e+00  0.0000000000000000e+00 0.0000000000000000e+00 0.0000000000000000e+00  0.0000000000000000e+00 0.0000000000000000e+00 0.0000000000000000e+00  0.0000000000000000e+00 0.0000000000000000e+00 0.0000000000000000e+00  0.0000000000000000e+00 0.0000000000000000e+00 0.0000000000000000e+00  0.0000000000000000e+00 0.0000000000000000e+00 0.0000000000000000e+00  0.0000000000000000e+00 0.0000000000000000e+00 0.0000000000000000e+00  0.0000000000000000e+00 0.0000000000000000e+00 0.0000000000000000e+00  0.0000000000000000e+00 0.0000000000000000e+00 0.0000000000000000e+00  0.0000000000000000e+00 0.0000000000000000e+00 0.0000000000000000e+00  0.0000000000000000e+00 0.0000000000000000e+00 0.0000000000000000e+00  0.0000000000000000e+00 0.0000000000000000e+00 0.0000000000000000e+00  0.0000000000000000e+00 0.0000000000000000e+00 0.0000000000000000e+00  0.0000000000000000e+00 0.0000000000000000e+00 0.0000000000000000e+00  0.0000000000000000e+00 0.0000000000000000e+00 0.0000000000000000e+00  0.0000000000000000e+00 0.0000000000000000e+00 0.0000000000000000e+00  9.9999999999795708e-01 0.0000000000000000e+00 0.0000000000000000e+00  0.0000000000000000e+00 0.0000000000000000e+00 0.0000000000000000e+00  0.0000000000000000e+00 0.0000000000000000e+00 0.0000000000000000e+00  0.0000000000000000e+00 0.0000000000000000e+00 0.0000000000000000e+00  0.0000000000000000e+00 0.0000000000000000e+00 0.0000000000000000e+00  0.0000000000000000e+00 0.0000000000000000e+00 0.0000000000000000e+00  0.0000000000000000e+00 0.0000000000000000e+00 0.0000000000000000e+00  0.0000000000000000e+00 0.0000000000000000e+00 0.0000000000000000e+00  0.0000000000000000e+00 0.0000000000000000e+00 0.0000000000000000e+00  0.0000000000000000e+00 0.0000000000000000e+00 0.0000000000000000e+00  0.0000000000000000e+00 0.0000000000000000e+00 0.0000000000000000e+00  0.0000000000000000e+00 0.0000000000000000e+00 0.0000000000000000e+00  0.0000000000000000e+00 0.0000000000000000e+00 0.0000000000000000e+00  0.0000000000000000e+00 0.0000000000000000e+00 0.0000000000000000e+00  0.0000000000000000e+00 0.0000000000000000e+00 0.0000000000000000e+00  0.0000000000000000e+00 0.0000000000000000e+00 0.0000000000000000e+00  0.0000000000000000e+00 0.0000000000000000e+00 0.0000000000000000e+00  0.0000000000000000e+00 0.0000000000000000e+00 0.0000000000000000e+00  0.0000000000000000e+00 0.0000000000000000e+00 0.0000000000000000e+00  0.0000000000000000e+00 0.0000000000000000e+00 0.0000000000000000e+00  0.0000000000000000e+00 0.0000000000000000e+00 0.0000000000000000e+00  0.0000000000000000e+00 0.0000000000000000e+00 0.0000000000000000e+00  0.0000000000000000e+00 0.0000000000000000e+00 0.0000000000000000e+00  0.0000000000000000e+00 0.0000000000000000e+00 0.0000000000000000e+00  0.0000000000000000e+00 0.0000000000000000e+00 0.0000000000000000e+00  0.0000000000000000e+00 0.0000000000000000e+00 0.0000000000000000e+00  0.0000000000000000e+00 0.0000000000000000e+00 0.0000000000000000e+00  0.0000000000000000e+00 0.0000000000000000e+00 0.0000000000000000e+00  0.0000000000000000e+00 0.0000000000000000e+00 0.0000000000000000e+00  0.0000000000000000e+00 0.0000000000000000e+00 0.0000000000000000e+00  0.0000000000000000e+00 0.0000000000000000e+00 0.0000000000000000e+00  0.0000000000000000e+00 0.0000000000000000e+00 0.0000000000000000e+00  0.0000000000000000e+00 0.0000000000000000e+00 0.0000000000000000e+00  0.0000000000000000e+00 0.0000000000000000e+00 0.0000000000000000e+00  0.0000000000000000e+00 0.0000000000000000e+00 0.0000000000000000e+00  0.0000000000000000e+00 0.0000000000000000e+00 0.0000000000000000e+00  0.0000000000000000e+00 0.0000000000000000e+00 0.0000000000000000e+00  0.0000000000000000e+00 0.0000000000000000e+00 0.0000000000000000e+00  0.0000000000000000e+00 0.0000000000000000e+00 0.0000000000000000e+00  0.0000000000000000e+00 0.0000000000000000e+00 0.0000000000000000e+00  0.0000000000000000e+00 0.0000000000000000e+00 0.0000000000000000e+00  9.9999999999795708e-01 0.0000000000000000e+00 0.0000000000000000e+00  0.0000000000000000e+00 0.0000000000000000e+00 0.0000000000000000e+00  0.0000000000000000e+00 0.0000000000000000e+00 0.0000000000000000e+00  0.0000000000000000e+00 0.0000000000000000e+00 0.0000000000000000e+00  0.0000000000000000e+00 0.0000000000000000e+00 0.0000000000000000e+00  0.0000000000000000e+00 0.0000000000000000e+00 0.0000000000000000e+00  0.0000000000000000e+00 0.0000000000000000e+00 0.0000000000000000e+00  0.0000000000000000e+00 0.0000000000000000e+00 0.0000000000000000e+00  0.0000000000000000e+00 0.0000000000000000e+00 0.0000000000000000e+00  0.0000000000000000e+00 0.0000000000000000e+00 0.0000000000000000e+00  0.0000000000000000e+00 0.0000000000000000e+00 0.0000000000000000e+00  0.0000000000000000e+00 0.0000000000000000e+00 0.0000000000000000e+00  0.0000000000000000e+00 0.0000000000000000e+00 0.0000000000000000e+00  0.0000000000000000e+00 0.0000000000000000e+00 0.0000000000000000e+00  0.0000000000000000e+00 0.0000000000000000e+00 0.0000000000000000e+00  0.0000000000000000e+00 0.0000000000000000e+00 0.0000000000000000e+00  0.0000000000000000e+00 0.0000000000000000e+00 0.0000000000000000e+00  0.0000000000000000e+00 0.0000000000000000e+00 0.0000000000000000e+00  0.0000000000000000e+00 0.0000000000000000e+00 0.0000000000000000e+00  0.0000000000000000e+00 0.0000000000000000e+00 0.0000000000000000e+00  0.0000000000000000e+00 0.0000000000000000e+00 0.0000000000000000e+00  0.0000000000000000e+00 0.0000000000000000e+00 0.0000000000000000e+00  0.0000000000000000e+00 0.0000000000000000e+00 0.0000000000000000e+00  0.0000000000000000e+00 0.0000000000000000e+00 0.0000000000000000e+00  0.0000000000000000e+00 0.0000000000000000e+00 0.0000000000000000e+00  0.0000000000000000e+00 0.0000000000000000e+00 0.0000000000000000e+00  0.0000000000000000e+00 0.0000000000000000e+00 0.0000000000000000e+00  0.0000000000000000e+00 0.0000000000000000e+00 0.0000000000000000e+00  0.0000000000000000e+00 0.0000000000000000e+00 0.0000000000000000e+00  0.0000000000000000e+00 0.0000000000000000e+00 0.0000000000000000e+00  0.0000000000000000e+00 0.0000000000000000e+00 0.0000000000000000e+00  0.0000000000000000e+00 0.0000000000000000e+00 0.0000000000000000e+00  0.0000000000000000e+00 0.0000000000000000e+00 0.0000000000000000e+00  0.0000000000000000e+00 0.0000000000000000e+00 0.0000000000000000e+00  0.0000000000000000e+00 0.0000000000000000e+00 0.0000000000000000e+00  0.0000000000000000e+00 0.0000000000000000e+00 0.0000000000000000e+00  0.0000000000000000e+00 0.0000000000000000e+00 0.0000000000000000e+00  0.0000000000000000e+00 0.0000000000000000e+00 0.0000000000000000e+00  0.0000000000000000e+00 0.0000000000000000e+00 0.0000000000000000e+00  0.0000000000000000e+00 0.0000000000000000e+00 0.0000000000000000e+00  0.0000000000000000e+00 0.0000000000000000e+00 0.0000000000000000e+00  9.9999999999795708e-01 0.0000000000000000e+00 0.0000000000000000e+00  0.0000000000000000e+00 0.0000000000000000e+00 0.0000000000000000e+00  0.0000000000000000e+00 0.0000000000000000e+00 0.0000000000000000e+00  0.0000000000000000e+00 0.0000000000000000e+00 0.0000000000000000e+00  0.0000000000000000e+00 0.0000000000000000e+00 0.0000000000000000e+00  0.0000000000000000e+00 0.0000000000000000e+00 0.0000000000000000e+00  0.0000000000000000e+00 0.0000000000000000e+00 0.0000000000000000e+00  0.0000000000000000e+00 0.0000000000000000e+00 0.0000000000000000e+00  0.0000000000000000e+00 0.0000000000000000e+00 0.0000000000000000e+00  0.0000000000000000e+00 0.0000000000000000e+00 0.0000000000000000e+00  0.0000000000000000e+00 0.0000000000000000e+00 0.0000000000000000e+00  0.0000000000000000e+00 0.0000000000000000e+00 0.0000000000000000e+00  0.0000000000000000e+00 0.0000000000000000e+00 0.0000000000000000e+00  0.0000000000000000e+00 0.0000000000000000e+00 0.0000000000000000e+00  0.0000000000000000e+00 0.0000000000000000e+00 0.0000000000000000e+00  0.0000000000000000e+00 0.0000000000000000e+00 0.0000000000000000e+00  0.0000000000000000e+00 0.0000000000000000e+00 0.0000000000000000e+00  0.0000000000000000e+00 0.0000000000000000e+00 0.0000000000000000e+00  0.0000000000000000e+00 0.0000000000000000e+00 0.0000000000000000e+00  0.0000000000000000e+00 0.0000000000000000e+00 0.0000000000000000e+00  0.0000000000000000e+00 0.0000000000000000e+00 0.0000000000000000e+00  0.0000000000000000e+00 0.0000000000000000e+00 0.0000000000000000e+00  0.0000000000000000e+00 0.0000000000000000e+00 0.0000000000000000e+00  0.0000000000000000e+00 0.0000000000000000e+00 0.0000000000000000e+00  0.0000000000000000e+00 0.0000000000000000e+00 0.0000000000000000e+00  0.0000000000000000e+00 0.0000000000000000e+00 0.0000000000000000e+00  0.0000000000000000e+00 0.0000000000000000e+00 0.0000000000000000e+00  0.0000000000000000e+00 0.0000000000000000e+00 0.0000000000000000e+00  0.0000000000000000e+00 0.0000000000000000e+00 0.0000000000000000e+00  0.0000000000000000e+00 0.0000000000000000e+00 0.0000000000000000e+00  0.0000000000000000e+00 0.0000000000000000e+00 0.0000000000000000e+00  0.0000000000000000e+00 0.0000000000000000e+00 0.0000000000000000e+00  0.0000000000000000e+00 0.0000000000000000e+00 0.0000000000000000e+00  0.0000000000000000e+00 0.0000000000000000e+00 0.0000000000000000e+00  0.0000000000000000e+00 0.0000000000000000e+00 0.0000000000000000e+00  0.0000000000000000e+00 0.0000000000000000e+00 0.0000000000000000e+00  0.0000000000000000e+00 0.0000000000000000e+00 0.0000000000000000e+00  0.0000000000000000e+00 0.0000000000000000e+00 0.0000000000000000e+00  0.0000000000000000e+00 0.0000000000000000e+00 0.0000000000000000e+00  0.0000000000000000e+00 0.0000000000000000e+00 0.0000000000000000e+00  0.0000000000000000e+00 0.0000000000000000e+00 0.0000000000000000e+00  9.9999999999795797e-01 0.0000000000000000e+00 0.0000000000000000e+00  1.5391387700285055e+00 3.1225903054410176e-01 3.1225903054132548e-01  1.2684496882094007e+00 2.6051128809658406e-02 2.6051128805099921e-02  1.3110273701651778e+00 3.9424872641941290e-03 3.9424872659800875e-03  1.3002916378987257e+00 1.6346020861409529e-03 1.6346021529111338e-03  1.2986802676032985e+00 9.6144365631861383e-05 9.6144787590282088e-05  1.2987096443016179e+00 7.8840166498402177e-06 7.8859345078422609e-06  1.2986652509387422e+00 1.0782313410179603e-05 1.0789599718182795e-05  1.2986434317251723e+00 7.8001113514669922e-08 1.0343769868196595e-07  1.2986463409122655e+00 -1.1846110698242129e-06 -1.1213651996945173e-06  1.2986484962885785e+00 -4.5443293638288280e-07 -2.7847217824086959e-07  1.2986489340264868e+00 1.0777037960710098e-06 1.2112849913554722e-06  1.2986359453625498e+00 -5.5151559636265797e-07 -4.4792486735566811e-07  1.2986799263076605e+00 3.2981566404917388e-05 2.8424398224160940e-05  1.2982947263448712e+00 -4.9024951079678389e-05 -4.5224461851130046e-05  1.2995512748258771e+00 4.6244569630646992e-04 1.7649938085190334e-04  1.2979956214106143e+00 -5.7565244077435935e-04 -1.7906458205591832e-04  1.2987844591965765e+00 -9.1167093948333586e-05 1.5091565699192533e-04  1.2985964414695024e+00 -3.6333737859869232e-05 -1.8310909726550390e-05  1.2987269287219951e+00 -1.8860322973972434e-06 -1.4391770671411404e-05  1.2987270510325675e+00 1.5566992372461132e-05 -5.3046295477047114e-07  1.2986715203205892e+00 2.4009436959186580e-05 1.1650924482998122e-06  1.2987868142237977e+00 1.7549307535211955e-04 9.0152182795536778e-05  1.2982725430150055e+00 1.3872858929397835e-04 -1.3767822930461340e-04  1.2996484876469179e+00 1.6833287086202531e-05 1.6724334078442382e-04  1.2975795348784791e+00 -7.6508179763050968e-05 -1.9286752208694107e-05  1.2986439068645335e+00 -1.1355313410411943e-04 -9.6367717127432965e-06  1.2986071133480677e+00 -2.0511051645695709e-05 1.7648745189856233e-06  1.2986345022317973e+00 -9.8014833977233237e-06 -4.5428377104826111e-06  1.2986487645788549e+00 -1.9490403862133427e-06 -1.7859722347384514e-06  1.2986508145927529e+00 1.7336674829839611e-07 -3.6378660621335789e-07  1.2986507233663407e+00 2.4043561849032952e-07 -8.6641996125034770e-08  1.2986506282358390e+00 -2.7962969289898340e-08 -1.6192121485890297e-07  1.2986515613705565e+00 -6.3969250143771222e-07 -6.8024409222260452e-07  1.2986557105187266e+00 -2.5422442090991170e-06 -2.5504482512810743e-06  1.2986652785290174e+00 -9.1015173268384614e-06 -9.1015411951104900e-06  1.2987122974068868e+00 3.3380959481390019e-06 3.3390758635884098e-06  1.2986564278761328e+00 2.2116164239392174e-04 