<?xml version="1.0"?>
<VTKFile type="UnstructuredGrid"  version="0.1"  >
<UnstructuredGrid>
<Piece  NumberOfPoints="4225" NumberOfCells="8192">
<Points>
<DataArray  type="Float64"  NumberOfComponents="3"  format="ascii">0 0 0  0.015625 0 0  0.03125 0 0  0.046875 0 0  0.0625 0 0  0.078125 0 0  0.09375 0 0  0.109375 0 0  0.125 0 0  0.140625 0 0  0.15625 0 0  0.171875 0 0  0.1875 0 0  0.203125 0 0  0.21875 0 0  0.234375 0 0  0.25 0 0  0.265625 0 0  0.28125 0 0  0.296875 0 0  0.3125 0 0  0.328125 0 0  0.34375 0 0  0.359375 0 0  0.375 0 0  0.390625 0 0  0.40625 0 0  0.421875 0 0  0.4375 0 0  0.453125 0 0  0.46875 0 0  0.484375 0 0  0.5 0 0  0.515625 0 0  0.53125 0 0  0.546875 0 0  0.5625 0 0  0.578125 0 0  0.59375 0 0  0.609375 0 0  0.625 0 0  0.640625 0 0  0.65625 0 0  0.671875 0 0  0.6875 0 0  0.703125 0 0  0.71875 0 0  0.734375 0 0  0.75 0 0  0.765625 0 0  0.78125 0 0  0.796875 0 0  0.8125 0 0  0.828125 0 0  0.84375 0 0  0.859375 0 0  0.875 0 0  0.890625 0 0  0.90625 0 0  0.921875 0 0  0.9375 0 0  0.953125 0 0  0.96875 0 0  0.984375 0 0  1 0 0  0 0.015625 0  0.015625 0.015625 0  0.03125 0.015625 0  0.046875 0.015625 0  0.0625 0.015625 0  0.078125 0.015625 0  0.09375 0.015625 0  0.109375 0.015625 0  0.125 0.015625 0  0.140625 0.015625 0  0.15625 0.015625 0  0.171875 0.015625 0  0.1875 0.015625 0  0.203125 0.015625 0  0.21875 0.015625 0  0.234375 0.015625 0  0.25 0.015625 0  0.265625 0.015625 0  0.28125 0.015625 0  0.296875 0.015625 0  0.3125 0.015625 0  0.328125 0.015625 0  0.34375 0.015625 0  0.359375 0.015625 0  0.375 0.015625 0  0.390625 0.015625 0  0.40625 0.015625 0  0.421875 0.015625 0  0.4375 0.015625 0  0.453125 0.015625 0  0.46875 0.015625 0  0.484375 0.015625 0  0.5 0.015625 0  0.515625 0.015625 0  0.53125 0.015625 0  0.546875 0.015625 0  0.5625 0.015625 0  0.578125 0.015625 0  0.59375 0.015625 0  0.609375 0.015625 0  0.625 0.015625 0  0.640625 0.015625 0  0.65625 0.015625 0  0.671875 0.015625 0  0.6875 0.015625 0  0.703125 0.015625 0  0.71875 0.015625 0  0.734375 0.015625 0  0.75 0.015625 0  0.765625 0.015625 0  0.78125 0.015625 0  0.796875 0.015625 0  0.8125 0.015625 0  0.828125 0.015625 0  0.84375 0.015625 0  0.859375 0.015625 0  0.875 0.015625 0  0.890625 0.015625 0  0.90625 0.015625 0  0.921875 0.015625 0  0.9375 0.015625 0  0.953125 0.015625 0  0.96875 0.015625 0  0.984375 0.015625 0  1 0.015625 0  0 0.03125 0  0.015625 0.03125 0  0.03125 0.03125 0  0.046875 0.03125 0  0.0625 0.03125 0  0.078125 0.03125 0  0.09375 0.03125 0  0.109375 0.03125 0  0.125 0.03125 0  0.140625 0.03125 0  0.15625 0.03125 0  0.171875 0.03125 0  0.1875 0.03125 0  0.203125 0.03125 0  0.21875 0.03125 0  0.234375 0.03125 0  0.25 0.03125 0  0.265625 0.03125 0  0.28125 0.03125 0  0.296875 0.03125 0  0.3125 0.03125 0  0.328125 0.03125 0  0.34375 0.03125 0  0.359375 0.03125 0  0.375 0.03125 0  0.390625 0.03125 0  0.40625 0.03125 0  0.421875 0.03125 0  0.4375 0.03125 0  0.453125 0.03125 0  0.46875 0.03125 0  0.484375 0.03125 0  0.5 0.03125 0  0.515625 0.03125 0  0.53125 0.03125 0  0.546875 0.03125 0  0.5625 0.03125 0  0.578125 0.03125 0  0.59375 0.03125 0  0.609375 0.03125 0  0.625 0.03125 0  0.640625 0.03125 0  0.65625 0.03125 0  0.671875 0.03125 0  0.6875 0.03125 0  0.703125 0.03125 0  0.71875 0.03125 0  0.734375 0.03125 0  0.75 0.03125 0  0.765625 0.03125 0  0.78125 0.03125 0  0.796875 0.03125 0  0.8125 0.03125 0  0.828125 0.03125 0  0.84375 0.03125 0  0.859375 0.03125 0  0.875 0.03125 0  0.890625 0.03125 0  0.90625 0.03125 0  0.921875 0.03125 0  0.9375 0.03125 0  0.953125 0.03125 0  0.96875 0.03125 0  0.984375 0.03125 0  1 0.03125 0  0 0.046875 0  0.015625 0.046875 0  0.03125 0.046875 0  0.046875 0.046875 0  0.0625 0.046875 0  0.078125 0.046875 0  0.09375 0.046875 0  0.109375 0.046875 0  0.125 0.046875 0  0.140625 0.046875 0  0.15625 0.046875 0  0.171875 0.046875 0  0.1875 0.046875 0  0.203125 0.046875 0  0.21875 0.046875 0  0.234375 0.046875 0  0.25 0.046875 0  0.265625 0.046875 0  0.28125 0.046875 0  0.296875 0.046875 0  0.3125 0.046875 0  0.328125 0.046875 0  0.34375 0.046875 0  0.359375 0.046875 0  0.375 0.046875 0  0.390625 0.046875 0  0.40625 0.046875 0  0.421875 0.046875 0  0.4375 0.046875 0  0.453125 0.046875 0  0.46875 0.046875 0  0.484375 0.046875 0  0.5 0.046875 0  0.515625 0.046875 0  0.53125 0.046875 0  0.546875 0.046875 0  0.5625 0.046875 0  0.578125 0.046875 0  0.59375 0.046875 0  0.609375 0.046875 0  0.625 0.046875 0  0.640625 0.046875 0  0.65625 0.046875 0  0.671875 0.046875 0  0.6875 0.046875 0  0.703125 0.046875 0  0.71875 0.046875 0  0.734375 0.046875 0  0.75 0.046875 0  0.765625 0.046875 0  0.78125 0.046875 0  0.796875 0.046875 0  0.8125 0.046875 0  0.828125 0.046875 0  0.84375 0.046875 0  0.859375 0.046875 0  0.875 0.046875 0  0.890625 0.046875 0  0.90625 0.046875 0  0.921875 0.046875 0  0.9375 0.046875 0  0.953125 0.046875 0  0.96875 0.046875 0  0.984375 0.046875 0  1 0.046875 0  0 0.0625 0  0.015625 0.0625 0  0.03125 0.0625 0  0.046875 0.0625 0  0.0625 0.0625 0  0.078125 0.0625 0  0.09375 0.0625 0  0.109375 0.0625 0  0.125 0.0625 0  0.140625 0.0625 0  0.15625 0.0625 0  0.171875 0.0625 0  0.1875 0.0625 0  0.203125 0.0625 0  0.21875 0.0625 0  0.234375 0.0625 0  0.25 0.0625 0  0.265625 0.0625 0  0.28125 0.0625 0  0.296875 0.0625 0  0.3125 0.0625 0  0.328125 0.0625 0  0.34375 0.0625 0  0.359375 0.0625 0  0.375 0.0625 0  0.390625 0.0625 0  0.40625 0.0625 0  0.421875 0.0625 0  0.4375 0.0625 0  0.453125 0.0625 0  0.46875 0.0625 0  0.484375 0.0625 0  0.5 0.0625 0  0.515625 0.0625 0  0.53125 0.0625 0  0.546875 0.0625 0  0.5625 0.0625 0  0.578125 0.0625 0  0.59375 0.0625 0  0.609375 0.0625 0  0.625 0.0625 0  0.640625 0.0625 0  0.65625 0.0625 0  0.671875 0.0625 0  0.6875 0.0625 0  0.703125 0.0625 0  0.71875 0.0625 0  0.734375 0.0625 0  0.75 0.0625 0  0.765625 0.0625 0  0.78125 0.0625 0  0.796875 0.0625 0  0.8125 0.0625 0  0.828125 0.0625 0  0.84375 0.0625 0  0.859375 0.0625 0  0.875 0.0625 0  0.890625 0.0625 0  0.90625 0.0625 0  0.921875 0.0625 0  0.9375 0.0625 0  0.953125 0.0625 0  0.96875 0.0625 0  0.984375 0.0625 0  1 0.0625 0  0 0.078125 0  0.015625 0.078125 0  0.03125 0.078125 0  0.046875 0.078125 0  0.0625 0.078125 0  0.078125 0.078125 0  0.09375 0.078125 0  0.109375 0.078125 0  0.125 0.078125 0  0.140625 0.078125 0  0.15625 0.078125 0  0.171875 0.078125 0  0.1875 0.078125 0  0.203125 0.078125 0  0.21875 0.078125 0  0.234375 0.078125 0  0.25 0.078125 0  0.265625 0.078125 0  0.28125 0.078125 0  0.296875 0.078125 0  0.3125 0.078125 0  0.328125 0.078125 0  0.34375 0.078125 0  0.359375 0.078125 0  0.375 0.078125 0  0.390625 0.078125 0  0.40625 0.078125 0  0.421875 0.078125 0  0.4375 0.078125 0  0.453125 0.078125 0  0.46875 0.078125 0  0.484375 0.078125 0  0.5 0.078125 0  0.515625 0.078125 0  0.53125 0.078125 0  0.546875 0.078125 0  0.5625 0.078125 0  0.578125 0.078125 0  0.59375 0.078125 0  0.609375 0.078125 0  0.625 0.078125 0  0.640625 0.078125 0  0.65625 0.078125 0  0.671875 0.078125 0  0.6875 0.078125 0  0.703125 0.078125 0  0.71875 0.078125 0  0.734375 0.078125 0  0.75 0.078125 0  0.765625 0.078125 0  0.78125 0.078125 0  0.796875 0.078125 0  0.8125 0.078125 0  0.828125 0.078125 0  0.84375 0.078125 0  0.859375 0.078125 0  0.875 0.078125 0  0.890625 0.078125 0  0.90625 0.078125 0  0.921875 0.078125 0  0.9375 0.078125 0  0.953125 0.078125 0  0.96875 0.078125 0  0.984375 0.078125 0  1 0.078125 0  0 0.09375 0  0.015625 0.09375 0  0.03125 0.09375 0  0.046875 0.09375 0  0.0625 0.09375 0  0.078125 0.09375 0  0.09375 0.09375 0  0.109375 0.09375 0  0.125 0.09375 0  0.140625 0.09375 0  0.15625 0.09375 0  0.171875 0.09375 0  0.1875 0.09375 0  0.203125 0.09375 0  0.21875 0.09375 0  0.234375 0.09375 0  0.25 0.09375 0  0.265625 0.09375 0  0.28125 0.09375 0  0.296875 0.09375 0  0.3125 0.09375 0  0.328125 0.09375 0  0.34375 0.09375 0  0.359375 0.09375 0  0.375 0.09375 0  0.390625 0.09375 0  0.40625 0.09375 0  0.421875 0.09375 0  0.4375 0.09375 0  0.453125 0.09375 0  0.46875 0.09375 0  0.484375 0.09375 0  0.5 0.09375 0  0.515625 0.09375 0  0.53125 0.09375 0  0.546875 0.09375 0  0.5625 0.09375 0  0.578125 0.09375 0  0.59375 0.09375 0  0.609375 0.09375 0  0.625 0.09375 0  0.640625 0.09375 0  0.65625 0.09375 0  0.671875 0.09375 0  0.6875 0.09375 0  0.703125 0.09375 0  0.71875 0.09375 0  0.734375 0.09375 0  0.75 0.09375 0  0.765625 0.09375 0  0.78125 0.09375 0  0.796875 0.09375 0  0.8125 0.09375 0  0.828125 0.09375 0  0.84375 0.09375 0  0.859375 0.09375 0  0.875 0.09375 0  0.890625 0.09375 0  0.90625 0.09375 0  0.921875 0.09375 0  0.9375 0.09375 0  0.953125 0.09375 0  0.96875 0.09375 0  0.984375 0.09375 0  1 0.09375 0  0 0.109375 0  0.015625 0.109375 0  0.03125 0.109375 0  0.046875 0.109375 0  0.0625 0.109375 0  0.078125 0.109375 0  0.09375 0.109375 0  0.109375 0.109375 0  0.125 0.109375 0  0.140625 0.109375 0  0.15625 0.109375 0  0.171875 0.109375 0  0.1875 0.109375 0  0.203125 0.109375 0  0.21875 0.109375 0  0.234375 0.109375 0  0.25 0.109375 0  0.265625 0.109375 0  0.28125 0.109375 0  0.296875 0.109375 0  0.3125 0.109375 0  0.328125 0.109375 0  0.34375 0.109375 0  0.359375 0.109375 0  0.375 0.109375 0  0.390625 0.109375 0  0.40625 0.109375 0  0.421875 0.109375 0  0.4375 0.109375 0  0.453125 0.109375 0  0.46875 0.109375 0  0.484375 0.109375 0  0.5 0.109375 0  0.515625 0.109375 0  0.53125 0.109375 0  0.546875 0.109375 0  0.5625 0.109375 0  0.578125 0.109375 0  0.59375 0.109375 0  0.609375 0.109375 0  0.625 0.109375 0  0.640625 0.109375 0  0.65625 0.109375 0  0.671875 0.109375 0  0.6875 0.109375 0  0.703125 0.109375 0  0.71875 0.109375 0  0.734375 0.109375 0  0.75 0.109375 0  0.765625 0.109375 0  0.78125 0.109375 0  0.796875 0.109375 0  0.8125 0.109375 0  0.828125 0.109375 0  0.84375 0.109375 0  0.859375 0.109375 0  0.875 0.109375 0  0.890625 0.109375 0  0.90625 0.109375 0  0.921875 0.109375 0  0.9375 0.109375 0  0.953125 0.109375 0  0.96875 0.109375 0  0.984375 0.109375 0  1 0.109375 0  0 0.125 0  0.015625 0.125 0  0.03125 0.125 0  0.046875 0.125 0  0.0625 0.125 0  0.078125 0.125 0  0.09375 0.125 0  0.109375 0.125 0  0.125 0.12
[...]
<PointData  Vectors="f_1530"> 
<DataArray  type="Float64"  Name="f_1530"  NumberOfComponents="3" format="ascii">7.8129768323075797e-03 -7.8125000000000000e-03 0.0000000000000000e+00  2.3434638877618780e-02 -7.8096390740624438e-03 0.0000000000000000e+00  3.9039136531458692e-02 -7.8010574603366795e-03 0.0000000000000000e+00  5.4615034432373012e-02 -7.7867586506855397e-03 0.0000000000000000e+00  7.0150908856527236e-02 -7.7667484635542995e-03 0.0000000000000000e+00  8.5635352367225304e-02 -7.7410350419819338e-03 0.0000000000000000e+00  1.0105697845886100e-01 -7.7096288508177527e-03 0.0000000000000000e+00  1.1640442619371498e-01 -7.6725426731443025e-03 0.0000000000000000e+00  1.3166636483001151e-01 -7.6297916059076213e-03 0.0000000000000000e+00  1.4683149843965290e-01 -7.5813930547562599e-03 0.0000000000000000e+00  1.6188857051405153e-01 -7.5273667280906544e-03 0.0000000000000000e+00  1.7682636855648456e-01 -7.4677346303247492e-03 0.0000000000000000e+00  1.9163372865939970e-01 -7.4025210543619512e-03 0.0000000000000000e+00  2.0629954006510492e-01 -7.3317525732878161e-03 0.0000000000000000e+00  2.2081274970828144e-01 -7.2554580312820457e-03 0.0000000000000000e+00  2.3516236673876315e-01 -7.1736685337526543e-03 0.0000000000000000e+00  2.4933746702303455e-01 -7.0864174366954222e-03 0.0000000000000000e+00  2.6332719762290224e-01 -6.9937403352819507e-03 0.0000000000000000e+00  2.7712078124980627e-01 -6.8956750516799203e-03 0.0000000000000000e+00  2.9070752069324174e-01 -6.7922616221093744e-03 0.0000000000000000e+00  3.0407680322177189e-01 -6.6835422831390875e-03 0.0000000000000000e+00  3.1721810495512054e-01 -6.5695614572273313e-03 0.0000000000000000e+00  3.3012099520584187e-01 -6.4503657375115748e-03 0.0000000000000000e+00  3.4277514078907539e-01 -6.3260038718519068e-03 0.0000000000000000e+00  3.5517031029890284e-01 -6.1965267461331752e-03 0.0000000000000000e+00  3.6729637834983470e-01 -6.0619873668311224e-03 0.0000000000000000e+00  3.7914332978196630e-01 -5.9224408428479591e-03 0.0000000000000000e+00  3.9070126382835230e-01 -5.7779443666231174e-03 0.0000000000000000e+00  4.0196039824316282e-01 -5.6285571945251054e-03 0.0000000000000000e+00  4.1291107338919458e-01 -5.4743406265306349e-03 0.0000000000000000e+00  4.2354375628332569e-01 -5.3153579851974034e-03 0.0000000000000000e+00  4.3384904459851309e-01 -5.1516745939371592e-03 0.0000000000000000e+00  4.4381767062094751e-01 -4.9833577545958692e-03 0.0000000000000000e+00  4.5344050516099471e-01 -4.8104767243480531e-03 0.0000000000000000e+00  4.6270856141656436e-01 -4.6331026919125490e-03 0.0000000000000000e+00  4.7161299878756513e-01 -4.4513087530971950e-03 0.0000000000000000e+00  4.8014512664012010e-01 -4.2651698856801300e-03 0.0000000000000000e+00  4.8829640801922913e-01 -4.0747629236356185e-03 0.0000000000000000e+00  4.9605846330858577e-01 -3.8801665307125130e-03 0.0000000000000000e+00  5.0342307383626905e-01 -3.6814611733736813e-03 0.0000000000000000e+00  5.1038218542504887e-01 -3.4787290931049143e-03 0.0000000000000000e+00  5.1692791188606380e-01 -3.2720542781020526e-03 0.0000000000000000e+00  5.2305253845464139e-01 -3.0615224343452383e-03 0.0000000000000000e+00  5.2874852516705673e-01 -2.8472209560694191e-03 0.0000000000000000e+00  5.3400851017703976e-01 -2.6292388956404207e-03 0.0000000000000000e+00  5.3882531301085956e-01 -2.4076669328460722e-03 0.0000000000000000e+00  5.4319193775983687e-01 -2.1825973436120786e-03 0.0000000000000000e+00  5.4710157620915445e-01 -1.9541239681525181e-03 0.0000000000000000e+00  5.5054761090185134e-01 -1.7223421785650022e-03 0.0000000000000000e+00  5.5352361813691464e-01 -1.4873488458807364e-03 0.0000000000000000e+00  5.5602337090039755e-01 -1.2492423065798841e-03 0.0000000000000000e+00  5.5804084172851454e-01 -1.0081223285828105e-03 0.0000000000000000e+00  5.5957020550168801e-01 -7.6409007672793676e-04 0.0000000000000000e+00  5.6060584216854203e-01 -5.1724807774715473e-04 0.0000000000000000e+00  5.6114233939885838e-01 -2.6770018474981012e-04 0.0000000000000000e+00  5.6117449516453566e-01 -1.5551541226553091e-05 0.0000000000000000e+00  5.6069732024761454e-01 2.3909145541561264e-04 0.0000000000000000e+00  5.5970604067445273e-01 4.9612119077550865e-04 0.0000000000000000e+00  5.5819610007516007e-01 7.5542887082552090e-04 0.0000000000000000e+00  5.5616316196742621e-01 1.0169045597130588e-03 0.0000000000000000e+00  5.5360311196389578e-01 1.2804372179837653e-03 0.0000000000000000e+00  5.5051205990227392e-01 1.5459147412143735e-03 0.0000000000000000e+00  5.4688634189736474e-01 1.8132239990429344e-03 0.0000000000000000e+00  5.4272252231427565e-01 2.0822508745840899e-03 0.0000000000000000e+00  5.4258740069135802e-01 2.3528803042168756e-03 0.0000000000000000e+00  7.8144073316556272e-03 -2.3437500000000000e-02 0.0000000000000000e+00  2.3441790646786056e-02 -2.3428917222187332e-02 0.0000000000000000e+00  3.9052006660414446e-02 -2.3403172381010036e-02 0.0000000000000000e+00  5.4633617684106239e-02 -2.3360275952056617e-02 0.0000000000000000e+00  7.0175197668836717e-02 -2.3300245390662899e-02 0.0000000000000000e+00  8.5665336855304336e-02 -2.3223105125945800e-02 0.0000000000000000e+00  1.0109264641867627e-01 -2.3128886552453258e-02 0.0000000000000000e+00  1.1644576310617824e-01 -2.3017628019432908e-02 0.0000000000000000e+00  1.3171335386594302e-01 -2.2889374817722862e-02 0.0000000000000000e+00  1.4688412046553476e-01 -2.2744179164268779e-02 0.0000000000000000e+00  1.6194680409856940e-01 -2.2582100184271963e-02 0.0000000000000000e+00  1.7689018997785569e-01 -2.2403203890974246e-02 0.0000000000000000e+00  1.9170311191348458e-01 -2.2207563163085853e-02 0.0000000000000000e+00  2.0637445687430056e-01 -2.1995257719863447e-02 0.0000000000000000e+00  2.2089316953119303e-01 -2.1766374093846134e-02 0.0000000000000000e+00  2.3524825678065150e-01 -2.1521005601257963e-02 0.0000000000000000e+00  2.4942879224703543e-01 -2.1259252310086265e-02 0.0000000000000000e+00  2.6342392076201471e-01 -2.0981221005845853e-02 0.0000000000000000e+00  2.7722286281964598e-01 -2.0687025155039764e-02 0.0000000000000000e+00  2.9081491900555489e-01 -2.0376784866328122e-02 0.0000000000000000e+00  3.0418947439870658e-01 -2.0050626849417264e-02 0.0000000000000000e+00  3.1733600294424935e-01 -1.9708684371681995e-02 0.0000000000000000e+00  3.3024407179593274e-01 -1.9351097212534724e-02 0.0000000000000000e+00  3.4290334562660479e-01 -1.8978011615555717e-02 0.0000000000000000e+00  3.5530359090530622e-01 -1.8589580238399527e-02 0.0000000000000000e+00  3.6743468013948932e-01 -1.8185962100493367e-02 0.0000000000000000e+00  3.7928659608089943e-01 -1.7767322528543877e-02 0.0000000000000000e+00  3.9084943589367094e-01 -1.7333833099869349e-02 0.0000000000000000e+00  4.0211341528319683e-01 -1.6885671583575314e-02 0.0000000000000000e+00  4.1306887258434827e-01 -1.6423021879591902e-02 0.0000000000000000e+00  4.2370627280763073e-01 -1.5946073955592208e-02 0.0000000000000000e+00  4.3401621164187570e-01 -1.5455023781811475e-02 0.0000000000000000e+00  4.4398941941208409e-01 -1.4950073263787608e-02 0.0000000000000000e+00  4.5361676499104681e-01 -1.4431430173044161e-02 0.0000000000000000e+00  4.6288925966338740e-01 -1.3899308075737644e-02 0.0000000000000000e+00  4.7179806094068233e-01 -1.3353926259291582e-02 0.0000000000000000e+00  4.8033447632633369e-01 -1.2795509657040387e-02 0.0000000000000000e+00  4.8848996702888114e-01 -1.2224288770906856e-02 0.0000000000000000e+00  4.9625615162245978e-01 -1.1640499592137539e-02 0.0000000000000000e+00  5.0362480965312473e-01 -1.1044383520121043e-02 0.0000000000000000e+00  5.1058788518978082e-01 -1.0436187279314744e-02 0.0000000000000000e+00  5.1713749031847489e-01 -9.8161628343061570e-03 0.0000000000000000e+00  5.2326590857882249e-01 -9.1845673030357157e-03 0.0000000000000000e+00  5.2896559834136314e-01 -8.5416628682082572e-03 0.0000000000000000e+00  5.3422919612465547e-01 -7.8877166869212624e-03 0.0000000000000000e+00  5.3904951985093841e-01 -7.2230007985382150e-03 0.0000000000000000e+00  5.4341957203921221e-01 -6.5477920308362365e-03 0.0000000000000000e+00  5.4733254293460598e-01 -5.8623719044575539e-03 0.0000000000000000e+00  5.5078181357292044e-01 -5.1670265356950039e-03 0.0000000000000000e+00  5.5376095877925680e-01 -4.4620465376422093e-03 0.0000000000000000e+00  5.5626375009966089e-01 -3.7477269197396541e-03 0.0000000000000000e+00  5.5828415866473535e-01 -3.0243669857484314e-03 0.0000000000000000e+00  5.5981635798419116e-01 -2.2922702301838120e-03 0.0000000000000000e+00  5.6085472667133507e-01 -1.5517442332414633e-03 0.0000000000000000e+00  5.6139385109650963e-01 -8.0310055424943037e-04 0.0000000000000000e+00  5.6142852796852316e-01 -4.6654623679658405e-05 0.0000000000000000e+00  5.6095376684313525e-01 7.1727436624683880e-04 0.0000000000000000e+00  5.5996479255768050e-01 1.4883635723265259e-03 0.0000000000000000e+00  5.5845704759094017e-01 2.2662866124765618e-03 0.0000000000000000e+00  5.5642619434739449e-01 3.0507136791391755e-03 0.0000000000000000e+00  5.5386811736501085e-01 3.8413116539512959e-03 0.0000000000000000e+00  5.5077892544574925e-01 4.6377442236431206e-03 0.0000000000000000e+00  5.4715495370798961e-01 5.4396719971288015e-03 0.0000000000000000e+00  5.4299276556011111e-01 6.2467526237522698e-03 0.0000000000000000e+00  5.4258740069135802e-01 7.0586409126505156e-03 0.0000000000000000e+00  7.8158378310036747e-03 -3.9062500000000000e-02 0.0000000000000000e+00  2.3448942415953328e-02 -3.9048195370312219e-02 0.0000000000000000e+00  3.9064876789370200e-02 -3.9005287301683400e-02 0.0000000000000000e+00  5.4652200935839480e-02 -3.8933793253427697e-02 0.0000000000000000e+00  7.0199486481146212e-02 -3.8833742317771501e-02 0.0000000000000000e+00  8.5695321343383382e-02 -3.8705175209909667e-02 0.0000000000000000e+00  1.0112831437849154e-01 -3.8548144254088763e-02 0.0000000000000000e+00  1.1648710001864153e-01 -3.8362713365721515e-02 0.0000000000000000e+00  1.3176034290187452e-01 -3.8148958029538105e-02 0.0000000000000000e+00  1.4693674249141658e-01 -3.7906965273781297e-02 0.0000000000000000e+00  1.6200503768308727e-01 -3.7636833640453275e-02 0.0000000000000000e+00  1.7695401139922684e-01 -3.7338673151623744e-02 0.0000000000000000e+00  1.9177249516756945e-01 -3.7012605271809759e-02 0.0000000000000000e+00  2.0644937368349617e-01 -3.6658762866439078e-02 0.0000000000000000e+00  2.2097358935410466e-01 -3.6277290156410229e-02 0.0000000000000000e+00  2.3533414682253984e-01 -3.5868342668763264e-02 0.0000000000000000e+00  2.4952011747103625e-01 -3.5432087183477110e-02 0.0000000000000000e+00  2.6352064390112717e-01 -3.4968701676409752e-02 0.0000000000000000e+00  2.7732494438948568e-01 -3.4478375258399606e-02 0.0000000000000000e+00  2.9092231731786822e-01 -3.3961308110546873e-02 0.0000000000000000e+00  3.0430214557564128e-01 -3.3417711415695439e-02 0.0000000000000000e+00  3.1745390093337816e-01 -3.2847807286136663e-02 0.0000000000000000e+00  3.3036714838602355e-01 -3.2251828687557875e-02 0.0000000000000000e+00  3.4303155046413414e-01 -3.1630019359259534e-02 0.0000000000000000e+00  3.5543687151170966e-01 -3.0982633730665874e-02 0.0000000000000000e+00  3.6757298192914389e-01 -3.0309936834155615e-02 0.0000000000000000e+00  3.7942986237983267e-01 -2.9612204214239796e-02 0.0000000000000000e+00  3.9099760795898963e-01 -2.8889721833115587e-02 0.0000000000000000e+00  4.0226643232323084e-01 -2.8142785972625525e-02 0.0000000000000000e+00  4.1322667177950201e-01 -2.7371703132653177e-02 0.0000000000000000e+00  4.2386878933193572e-01 -2.6576789925987013e-02 0.0000000000000000e+00  4.3418337868523843e-01 -2.5758372969685799e-02 0.0000000000000000e+00  4.4416116820322066e-01 -2.4916788772979346e-02 0.0000000000000000e+00  4.5379302482109884e-01 -2.4052383621740267e-02 0.0000000000000000e+00  4.6306995791021044e-01 -2.3165513459562748e-02 0.0000000000000000e+00  4.7198312309379953e-01 -2.2256543765485977e-02 0.0000000000000000e+00  4.8052382601254728e-01 -2.1325849428400649e-02 0.0000000000000000e+00  4.8868352603853310e-01 -2.0373814618178096e-02 0.0000000000000000e+00  4.9645383993633380e-01 -1.9400832653562565e-02 0.0000000000000000e+00  5.0382654546998051e-01 -1.8407305866868402e-02 0.0000000000000000e+00  5.1079358495451277e-01 -1.7393645465524570e-02 0.0000000000000000e+00  5.1734706875088576e-01 -1.6360271390510259e-02 0.0000000000000000e+00  5.2347927870300337e-01 -1.5307612171726191e-02 0.0000000000000000e+00  5.2918267151566967e-01 -1.4236104780347095e-02 0.0000000000000000e+00  5.3444988207227129e-01 -1.3146194478202103e-02 0.0000000000000000e+00  5.3927372669101736e-01 -1.2038334664230363e-02 0.0000000000000000e+00  5.4364720631858754e-01 -1.0912986718060392e-02 0.0000000000000000e+00  5.4756350966005740e-01 -9.7706198407625927e-03 0.0000000000000000e+00  5.5101601624398966e-01 -8.6117108928250100e-03 0.0000000000000000e+00  5.5399829942159895e-01 -7.4367442294036822e-03 0.0000000000000000e+00  5.5650412929892412e-01 -6.2462115328994205e-03 0.0000000000000000e+00  5.5852747560095617e-01 -5.0406116429140488e-03 0.0000000000000000e+00  5.6006251046669409e-01 -3.8204503836396855e-03 0.0000000000000000e+00  5.6110361117412810e-01 -2.5862403887357728e-03 0.0000000000000000e+00  5.6164536279416100e-01 -1.3385009237490489e-03 0.0000000000000000e+00  5.6168256077251055e-01 -7.7757706132768056e-05 0.0000000000000000e+00  5.6121021343865596e-01 1.1954572770780623e-03 0.0000000000000000e+00  5.6022354444090827e-01 2.4806059538775432e-03 0.0000000000000000e+00  5.5871799510672038e-01 3.7771443541276019e-03 0.0000000000000000e+00  5.5668922672736287e-01 5.0845227985652913e-03 0.0000000000000000e+00  5.5413312276612603e-01 6.4021860899188300e-03 0.0000000000000000e+00  5.5104579098922468e-01 7.7295737060718676e-03 0.0000000000000000e+00  5.4742356551861449e-01 9.0661199952146720e-03 0.0000000000000000e+00  5.4326300880594658e-01 1.0411254372920450e-02 0.0000000000000000e+00  5.4258740069135802e-01 1.1764401521084267e-02 0.0000000000000000e+00  7.8172683303517204e-03 -5.4687500000000000e-02 0.0000000000000000e+00  2.3456094185120603e-02 -5.4667473518437107e-02 0.0000000000000000e+00  3.9077746918325947e-02 -5.4607402222356757e-02 0.0000000000000000e+00  5.4670784187572721e-02 -5.4507310554798780e-02 0.0000000000000000e+00  7.0223775293455679e-02 -5.4367239244880100e-02 0.0000000000000000e+00  8.5725305831462428e-02 -5.4187245293873532e-02 0.0000000000000000e+00  1.0116398233830681e-01 -5.3967401955724276e-02 0.0000000000000000e+00  1.1652843693110479e-01 -5.3707798712010119e-02 0.0000000000000000e+00  1.3180733193780603e-01 -5.3408541241353351e-02 0.0000000000000000e+00  1.4698936451729844e-01 -5.3069751383293819e-02 0.0000000000000000e+00  1.6206327126760517e-01 -5.2691567096634584e-02 0.0000000000000000e+00  1.7701783282059791e-01 -5.2274142412273239e-02 0.0000000000000000e+00  1.9184187842165432e-01 -5.1817647380533655e-02 0.0000000000000000e+00  2.0652429049269180e-01 -5.1322268013014712e-02 0.0000000000000000e+00  2.2105400917701626e-01 -5.0788206218974313e-02 0.0000000000000000e+00  2.3542003686442817e-01 -5.0215679736268580e-02 0.0000000000000000e+00  2.4961144269503713e-01 -4.9604922056867951e-02 0.0000000000000000e+00  2.6361736704023964e-01 -4.8956182346973652e-02 0.0000000000000000e+00  2.7742702595932534e-01 -4.8269725361759441e-02 0.0000000000000000e+00  2.9102971563018143e-01 -4.7545831354765623e-02 0.0000000000000000e+00  3.0441481675257598e-01 -4.6784795981973618e-02 0.0000000000000000e+00  3.1757179892250692e-01 -4.5986930200591317e-02 0.0000000000000000e+00  3.3049022497611436e-01 -4.5152560162581026e-02 0.0000000000000000e+00  3.4315975530166354e-01 -4.4282027102963341e-02 0.0000000000000000e+00  3.5557015211811310e-01 -4.3375687222932231e-02 0.0000000000000000e+00  3.6771128371879841e-01 -4.2433911567817853e-02 0.0000000000000000e+00  3.7957312867876580e-01 -4.1457085899935714e-02 0.0000000000000000e+00  3.9114578002430822e-01 -4.0445610566361818e-02 0.0000000000000000e+00  4.0241944936326485e-01 -3.9399900361675733e-02 0.0000000000000000e+00  4.1338447097465575e-01 -3.8320384385714445e-02 0.0000000000000000e+00  4.2403130585624071e-01 -3.7207505896381825e-02 0.0000000000000000e+00  4.3435054572860105e-01 -3.6061722157560108e-02 0.0000000000000000e+00  4.4433291699435717e-01 -3.4883504282171088e-02 0.0000000000000000e+00  4.5396928465115083e-01 -3.3673337070436370e-02 0.0000000000000000e+00  4.6325065615703348e-01 -3.2431718843387844e-02 0.0000000000000000e+00  4.7216818524691673e-01 -3.1159161271680360e-02 0.0000000000000000e+00  4.8071317569876088e-01 -2.9856189199760907e-02 0.0000000000000000e+00  4.8887708504818511e-01 -2.8523340465449330e-02 0.0000000000000000e+00  4.9665152825020775e-01 -2.7161165714987587e-02 0.0000000000000000e+00  5.0402828128683619e-01 -2.5770228213615770e-02 0.0000000000000000e+00  5.1099928471924483e-01 -2.4351103651734398e-02 0.0000000000000000e+00  5.1755664718329686e-01 -2.2904379946714369e-02 0.0000000000000000e+00  5.2369264882718447e-01 -2.1430657040416665e-02 0.0000000000000000e+00  5.2939974468997608e-01 -1.9930546692485934e-02 0.0000000000000000e+00  5.3467056801988710e-01 -1.8404672269482943e-02 0.0000000000000000e+00  5.3949793353109632e-01 -1.6853668529922504e-02 0.0000000000000000e+00  5.4387484059796287e-01 -1.5278181405284547e-02 0.0000000000000000e+00  5.4779447638550904e-01 -1.3678867777067626e-02 0.0000000000000000e+00  5.5125021891505888e-01 -1.2056395249955013e-02 0.0000000000000000e+00  5.5423564006394110e-01 -1.0411441921165155e-02 0.0000000000000000e+00  5.5674450849818757e-01 -8.7446961460591888e-03 0.0000000000000000e+00  5.5877079253717699e-01 -7.0568563000796732e-03 0.0000000000000000e+00  5.6030866294919723e-01 -5.3486305370955625e-03 0.0000000000000000e+00  5.6135249567692114e-01 -3.6207365442300840e-03 0.0000000000000000e+00  5.6189687449181225e-01 -1.8739012932486657e-03 0.0000000000000000e+00  5.6193659357649817e-01 -1.0886078858587250e-04 0.0000000000000000e+00  5.6146666003417667e-01 1.6736401879092824e-03 0.0000000000000000e+00  5.6048229632413604e-01 3.4728483354285605e-03 0.0000000000000000e+00  5.5897894262250047e-01 5.2880020957786419e-03 0.0000000000000000e+00  5.5695225910733126e-01 7.1183319179914106e-03 0.0000000000000000e+00  5.5439812816724110e-01 8.9630605258863641e-03 0.0000000000000000e+00  5.5131265653270023e-01 1.0821403188500611e-02 0.0000000000000000e+00  5.4769217732923936e-01 1.2692567993300541e-02 0.0000000000000000e+00  5.4353325205178205e-01 1.4575756122088633e-02 0.0000000000000000e+00  5.4258740069135802e-01 1.6470162129517907e-02 0.0000000000000000e+00  7.8186988296997800e-03 -7.0312500000000000e-02 0.0000000000000000e+00  2.3463245954287879e-02 -7.0286751666561995e-02 0.0000000000000000e+00  3.9090617047281701e-02 -7.0209517143030115e-02 0.0000000000000000e+00  5.4689367439305948e-02 -7.0080827856169856e-02 0.0000000000000000e+00  7.0248064105765173e-02 -6.9900736171988706e-02 0.0000000000000000e+00  8.5755290319541461e-02 -6.9669315377837396e-02 0.0000000000000000e+00  1.0119965029812208e-01 -6.9386659657359767e-02 0.0000000000000000e+00  1.1656977384356809e-01 -6.9052884058298736e-02 0.0000000000000000e+00  1.3185432097373750e-01 -6.8668124453168597e-02 0.0000000000000000e+00  1.4704198654318029e-01 -6.8232537492806347e-02 0.0000000000000000e+00  1.6212150485212301e-01 -6.7746300552815886e-02 0.0000000000000000e+00  1.7708165424196903e-01 -6.7209611672922734e-02 0.0000000000000000e+00  1.9191126167573921e-01 -6.6622689489257564e-02 0.0000000000000000e+00  2.0659920730188747e-01 -6.5985773159590352e-02 0.0000000000000000e+00  2.2113442899992786e-01 -6.5299122281538405e-02 0.0000000000000000e+00  2.3550592690631653e-01 -6.4563016803773882e-02 0.0000000000000000e+00  2.4970276791903800e-01 -6.3777756930258805e-02 0.0000000000000000e+00  2.6371409017935210e-01 -6.2943663017537552e-02 0.0000000000000000e+00  2.7752910752916504e-01 -6.2061075465119277e-02 0.0000000000000000e+00  2.9113711394249470e-01 -6.1130354598984374e-02 0.0000000000000000e+00  3.0452748792951068e-01 -6.0151880548251789e-