<?xml version="1.0"?>
<VTKFile type="UnstructuredGrid"  version="0.1"  >
<UnstructuredGrid>
<Piece  NumberOfPoints="4225" NumberOfCells="8192">
<Points>
<DataArray  type="Float64"  NumberOfComponents="3"  format="ascii">0 0 0  0.015625 0 0  0.03125 0 0  0.046875 0 0  0.0625 0 0  0.078125 0 0  0.09375 0 0  0.109375 0 0  0.125 0 0  0.140625 0 0  0.15625 0 0  0.171875 0 0  0.1875 0 0  0.203125 0 0  0.21875 0 0  0.234375 0 0  0.25 0 0  0.265625 0 0  0.28125 0 0  0.296875 0 0  0.3125 0 0  0.328125 0 0  0.34375 0 0  0.359375 0 0  0.375 0 0  0.390625 0 0  0.40625 0 0  0.421875 0 0  0.4375 0 0  0.453125 0 0  0.46875 0 0  0.484375 0 0  0.5 0 0  0.515625 0 0  0.53125 0 0  0.546875 0 0  0.5625 0 0  0.578125 0 0  0.59375 0 0  0.609375 0 0  0.625 0 0  0.640625 0 0  0.65625 0 0  0.671875 0 0  0.6875 0 0  0.703125 0 0  0.71875 0 0  0.734375 0 0  0.75 0 0  0.765625 0 0  0.78125 0 0  0.796875 0 0  0.8125 0 0  0.828125 0 0  0.84375 0 0  0.859375 0 0  0.875 0 0  0.890625 0 0  0.90625 0 0  0.921875 0 0  0.9375 0 0  0.953125 0 0  0.96875 0 0  0.984375 0 0  1 0 0  0 0.015625 0  0.015625 0.015625 0  0.03125 0.015625 0  0.046875 0.015625 0  0.0625 0.015625 0  0.078125 0.015625 0  0.09375 0.015625 0  0.109375 0.015625 0  0.125 0.015625 0  0.140625 0.015625 0  0.15625 0.015625 0  0.171875 0.015625 0  0.1875 0.015625 0  0.203125 0.015625 0  0.21875 0.015625 0  0.234375 0.015625 0  0.25 0.015625 0  0.265625 0.015625 0  0.28125 0.015625 0  0.296875 0.015625 0  0.3125 0.015625 0  0.328125 0.015625 0  0.34375 0.015625 0  0.359375 0.015625 0  0.375 0.015625 0  0.390625 0.015625 0  0.40625 0.015625 0  0.421875 0.015625 0  0.4375 0.015625 0  0.453125 0.015625 0  0.46875 0.015625 0  0.484375 0.015625 0  0.5 0.015625 0  0.515625 0.015625 0  0.53125 0.015625 0  0.546875 0.015625 0  0.5625 0.015625 0  0.578125 0.015625 0  0.59375 0.015625 0  0.609375 0.015625 0  0.625 0.015625 0  0.640625 0.015625 0  0.65625 0.015625 0  0.671875 0.015625 0  0.6875 0.015625 0  0.703125 0.015625 0  0.71875 0.015625 0  0.734375 0.015625 0  0.75 0.015625 0  0.765625 0.015625 0  0.78125 0.015625 0  0.796875 0.015625 0  0.8125 0.015625 0  0.828125 0.015625 0  0.84375 0.015625 0  0.859375 0.015625 0  0.875 0.015625 0  0.890625 0.015625 0  0.90625 0.015625 0  0.921875 0.015625 0  0.9375 0.015625 0  0.953125 0.015625 0  0.96875 0.015625 0  0.984375 0.015625 0  1 0.015625 0  0 0.03125 0  0.015625 0.03125 0  0.03125 0.03125 0  0.046875 0.03125 0  0.0625 0.03125 0  0.078125 0.03125 0  0.09375 0.03125 0  0.109375 0.03125 0  0.125 0.03125 0  0.140625 0.03125 0  0.15625 0.03125 0  0.171875 0.03125 0  0.1875 0.03125 0  0.203125 0.03125 0  0.21875 0.03125 0  0.234375 0.03125 0  0.25 0.03125 0  0.265625 0.03125 0  0.28125 0.03125 0  0.296875 0.03125 0  0.3125 0.03125 0  0.328125 0.03125 0  0.34375 0.03125 0  0.359375 0.03125 0  0.375 0.03125 0  0.390625 0.03125 0  0.40625 0.03125 0  0.421875 0.03125 0  0.4375 0.03125 0  0.453125 0.03125 0  0.46875 0.03125 0  0.484375 0.03125 0  0.5 0.03125 0  0.515625 0.03125 0  0.53125 0.03125 0  0.546875 0.03125 0  0.5625 0.03125 0  0.578125 0.03125 0  0.59375 0.03125 0  0.609375 0.03125 0  0.625 0.03125 0  0.640625 0.03125 0  0.65625 0.03125 0  0.671875 0.03125 0  0.6875 0.03125 0  0.703125 0.03125 0  0.71875 0.03125 0  0.734375 0.03125 0  0.75 0.03125 0  0.765625 0.03125 0  0.78125 0.03125 0  0.796875 0.03125 0  0.8125 0.03125 0  0.828125 0.03125 0  0.84375 0.03125 0  0.859375 0.03125 0  0.875 0.03125 0  0.890625 0.03125 0  0.90625 0.03125 0  0.921875 0.03125 0  0.9375 0.03125 0  0.953125 0.03125 0  0.96875 0.03125 0  0.984375 0.03125 0  1 0.03125 0  0 0.046875 0  0.015625 0.046875 0  0.03125 0.046875 0  0.046875 0.046875 0  0.0625 0.046875 0  0.078125 0.046875 0  0.09375 0.046875 0  0.109375 0.046875 0  0.125 0.046875 0  0.140625 0.046875 0  0.15625 0.046875 0  0.171875 0.046875 0  0.1875 0.046875 0  0.203125 0.046875 0  0.21875 0.046875 0  0.234375 0.046875 0  0.25 0.046875 0  0.265625 0.046875 0  0.28125 0.046875 0  0.296875 0.046875 0  0.3125 0.046875 0  0.328125 0.046875 0  0.34375 0.046875 0  0.359375 0.046875 0  0.375 0.046875 0  0.390625 0.046875 0  0.40625 0.046875 0  0.421875 0.046875 0  0.4375 0.046875 0  0.453125 0.046875 0  0.46875 0.046875 0  0.484375 0.046875 0  0.5 0.046875 0  0.515625 0.046875 0  0.53125 0.046875 0  0.546875 0.046875 0  0.5625 0.046875 0  0.578125 0.046875 0  0.59375 0.046875 0  0.609375 0.046875 0  0.625 0.046875 0  0.640625 0.046875 0  0.65625 0.046875 0  0.671875 0.046875 0  0.6875 0.046875 0  0.703125 0.046875 0  0.71875 0.046875 0  0.734375 0.046875 0  0.75 0.046875 0  0.765625 0.046875 0  0.78125 0.046875 0  0.796875 0.046875 0  0.8125 0.046875 0  0.828125 0.046875 0  0.84375 0.046875 0  0.859375 0.046875 0  0.875 0.046875 0  0.890625 0.046875 0  0.90625 0.046875 0  0.921875 0.046875 0  0.9375 0.046875 0  0.953125 0.046875 0  0.96875 0.046875 0  0.984375 0.046875 0  1 0.046875 0  0 0.0625 0  0.015625 0.0625 0  0.03125 0.0625 0  0.046875 0.0625 0  0.0625 0.0625 0  0.078125 0.0625 0  0.09375 0.0625 0  0.109375 0.0625 0  0.125 0.0625 0  0.140625 0.0625 0  0.15625 0.0625 0  0.171875 0.0625 0  0.1875 0.0625 0  0.203125 0.0625 0  0.21875 0.0625 0  0.234375 0.0625 0  0.25 0.0625 0  0.265625 0.0625 0  0.28125 0.0625 0  0.296875 0.0625 0  0.3125 0.0625 0  0.328125 0.0625 0  0.34375 0.0625 0  0.359375 0.0625 0  0.375 0.0625 0  0.390625 0.0625 0  0.40625 0.0625 0  0.421875 0.0625 0  0.4375 0.0625 0  0.453125 0.0625 0  0.46875 0.0625 0  0.484375 0.0625 0  0.5 0.0625 0  0.515625 0.0625 0  0.53125 0.0625 0  0.546875 0.0625 0  0.5625 0.0625 0  0.578125 0.0625 0  0.59375 0.0625 0  0.609375 0.0625 0  0.625 0.0625 0  0.640625 0.0625 0  0.65625 0.0625 0  0.671875 0.0625 0  0.6875 0.0625 0  0.703125 0.0625 0  0.71875 0.0625 0  0.734375 0.0625 0  0.75 0.0625 0  0.765625 0.0625 0  0.78125 0.0625 0  0.796875 0.0625 0  0.8125 0.0625 0  0.828125 0.0625 0  0.84375 0.0625 0  0.859375 0.0625 0  0.875 0.0625 0  0.890625 0.0625 0  0.90625 0.0625 0  0.921875 0.0625 0  0.9375 0.0625 0  0.953125 0.0625 0  0.96875 0.0625 0  0.984375 0.0625 0  1 0.0625 0  0 0.078125 0  0.015625 0.078125 0  0.03125 0.078125 0  0.046875 0.078125 0  0.0625 0.078125 0  0.078125 0.078125 0  0.09375 0.078125 0  0.109375 0.078125 0  0.125 0.078125 0  0.140625 0.078125 0  0.15625 0.078125 0  0.171875 0.078125 0  0.1875 0.078125 0  0.203125 0.078125 0  0.21875 0.078125 0  0.234375 0.078125 0  0.25 0.078125 0  0.265625 0.078125 0  0.28125 0.078125 0  0.296875 0.078125 0  0.3125 0.078125 0  0.328125 0.078125 0  0.34375 0.078125 0  0.359375 0.078125 0  0.375 0.078125 0  0.390625 0.078125 0  0.40625 0.078125 0  0.421875 0.078125 0  0.4375 0.078125 0  0.453125 0.078125 0  0.46875 0.078125 0  0.484375 0.078125 0  0.5 0.078125 0  0.515625 0.078125 0  0.53125 0.078125 0  0.546875 0.078125 0  0.5625 0.078125 0  0.578125 0.078125 0  0.59375 0.078125 0  0.609375 0.078125 0  0.625 0.078125 0  0.640625 0.078125 0  0.65625 0.078125 0  0.671875 0.078125 0  0.6875 0.078125 0  0.703125 0.078125 0  0.71875 0.078125 0  0.734375 0.078125 0  0.75 0.078125 0  0.765625 0.078125 0  0.78125 0.078125 0  0.796875 0.078125 0  0.8125 0.078125 0  0.828125 0.078125 0  0.84375 0.078125 0  0.859375 0.078125 0  0.875 0.078125 0  0.890625 0.078125 0  0.90625 0.078125 0  0.921875 0.078125 0  0.9375 0.078125 0  0.953125 0.078125 0  0.96875 0.078125 0  0.984375 0.078125 0  1 0.078125 0  0 0.09375 0  0.015625 0.09375 0  0.03125 0.09375 0  0.046875 0.09375 0  0.0625 0.09375 0  0.078125 0.09375 0  0.09375 0.09375 0  0.109375 0.09375 0  0.125 0.09375 0  0.140625 0.09375 0  0.15625 0.09375 0  0.171875 0.09375 0  0.1875 0.09375 0  0.203125 0.09375 0  0.21875 0.09375 0  0.234375 0.09375 0  0.25 0.09375 0  0.265625 0.09375 0  0.28125 0.09375 0  0.296875 0.09375 0  0.3125 0.09375 0  0.328125 0.09375 0  0.34375 0.09375 0  0.359375 0.09375 0  0.375 0.09375 0  0.390625 0.09375 0  0.40625 0.09375 0  0.421875 0.09375 0  0.4375 0.09375 0  0.453125 0.09375 0  0.46875 0.09375 0  0.484375 0.09375 0  0.5 0.09375 0  0.515625 0.09375 0  0.53125 0.09375 0  0.546875 0.09375 0  0.5625 0.09375 0  0.578125 0.09375 0  0.59375 0.09375 0  0.609375 0.09375 0  0.625 0.09375 0  0.640625 0.09375 0  0.65625 0.09375 0  0.671875 0.09375 0  0.6875 0.09375 0  0.703125 0.09375 0  0.71875 0.09375 0  0.734375 0.09375 0  0.75 0.09375 0  0.765625 0.09375 0  0.78125 0.09375 0  0.796875 0.09375 0  0.8125 0.09375 0  0.828125 0.09375 0  0.84375 0.09375 0  0.859375 0.09375 0  0.875 0.09375 0  0.890625 0.09375 0  0.90625 0.09375 0  0.921875 0.09375 0  0.9375 0.09375 0  0.953125 0.09375 0  0.96875 0.09375 0  0.984375 0.09375 0  1 0.09375 0  0 0.109375 0  0.015625 0.109375 0  0.03125 0.109375 0  0.046875 0.109375 0  0.0625 0.109375 0  0.078125 0.109375 0  0.09375 0.109375 0  0.109375 0.109375 0  0.125 0.109375 0  0.140625 0.109375 0  0.15625 0.109375 0  0.171875 0.109375 0  0.1875 0.109375 0  0.203125 0.109375 0  0.21875 0.109375 0  0.234375 0.109375 0  0.25 0.109375 0  0.265625 0.109375 0  0.28125 0.109375 0  0.296875 0.109375 0  0.3125 0.109375 0  0.328125 0.109375 0  0.34375 0.109375 0  0.359375 0.109375 0  0.375 0.109375 0  0.390625 0.109375 0  0.40625 0.109375 0  0.421875 0.109375 0  0.4375 0.109375 0  0.453125 0.109375 0  0.46875 0.109375 0  0.484375 0.109375 0  0.5 0.109375 0  0.515625 0.109375 0  0.53125 0.109375 0  0.546875 0.109375 0  0.5625 0.109375 0  0.578125 0.109375 0  0.59375 0.109375 0  0.609375 0.109375 0  0.625 0.109375 0  0.640625 0.109375 0  0.65625 0.109375 0  0.671875 0.109375 0  0.6875 0.109375 0  0.703125 0.109375 0  0.71875 0.109375 0  0.734375 0.109375 0  0.75 0.109375 0  0.765625 0.109375 0  0.78125 0.109375 0  0.796875 0.109375 0  0.8125 0.109375 0  0.828125 0.109375 0  0.84375 0.109375 0  0.859375 0.109375 0  0.875 0.109375 0  0.890625 0.109375 0  0.90625 0.109375 0  0.921875 0.109375 0  0.9375 0.109375 0  0.953125 0.109375 0  0.96875 0.109375 0  0.984375 0.109375 0  1 0.109375 0  0 0.125 0  0.015625 0.125 0  0.03125 0.125 0  0.046875 0.125 0  0.0625 0.125 0  0.078125 0.125 0  0.09375 0.125 0  0.109375 0.125 0  0.125 0.12
[...]
<PointData  Vectors="f_1530"> 
<DataArray  type="Float64"  Name="f_1530"  NumberOfComponents="3" format="ascii">1.0157785454556527e+00 -1.0078430972064480e+00 0.0000000000000000e+00  1.0317737409662886e+00 -1.0075944686733980e+00 0.0000000000000000e+00  1.0477649490850016e+00 -1.0068382106297045e+00 0.0000000000000000e+00  1.0637441120699245e+00 -1.0055585842666779e+00 0.0000000000000000e+00  1.0797029223730388e+00 -1.0037396107474916e+00 0.0000000000000000e+00  1.0956328188307740e+00 -1.0013650715128999e+00 0.0000000000000000e+00  1.1115249828594731e+00 -9.9841850871556270e-01 0.0000000000000000e+00  1.1273703346577570e+00 -9.9488322578683164e-01 0.0000000000000000e+00  1.1431595294179011e+00 -9.9074228813993070e-01 0.0000000000000000e+00  1.1588829535483778e+00 -9.8597852401350417e-01 0.0000000000000000e+00  1.1745307209098026e+00 -9.8057452545957735e-01 0.0000000000000000e+00  1.1900926690665705e+00 -9.7451264948001726e-01 0.0000000000000000e+00  1.2055583555565401e+00 -9.6777501931564702e-01 0.0000000000000000e+00  1.2209170541811925e+00 -9.6034352589222094e-01 0.0000000000000000e+00  1.2361577513187494e+00 -9.5219982942751979e-01 0.0000000000000000e+00  1.2512691422628128e+00 -9.4332536120388577e-01 0.0000000000000000e+00  1.2662396275891477e+00 -9.3370132551056928e-01 0.0000000000000000e+00  1.2810573095533067e+00 -9.2330870176031277e-01 0.0000000000000000e+00  1.2957099885218624e+00 -9.1212824678465698e-01 0.0000000000000000e+00  1.3101851594400793e+00 -9.0014049731249890e-01 0.0000000000000000e+00  1.3244700083389418e+00 -8.8732577263649404e-01 0.0000000000000000e+00  1.3385514088845127e+00 -8.7366417747194092e-01 0.0000000000000000e+00  1.3524159189726808e+00 -8.5913560501283892e-01 0.0000000000000000e+00  1.3660497773724292e+00 -8.4371974018986673e-01 0.0000000000000000e+00  1.3794389004208241e+00 -8.2739606313507053e-01 0.0000000000000000e+00  1.3925688787730095e+00 -8.1014385285810786e-01 0.0000000000000000e+00  1.4054249742105642e+00 -7.9194219113893893e-01 0.0000000000000000e+00  1.4179921165116567e+00 -7.7276996664190600e-01 0.0000000000000000e+00  1.4302549003865122e+00 -7.5260587925618527e-01 0.0000000000000000e+00  1.4421975824817839e+00 -7.3142844466764956e-01 0.0000000000000000e+00  1.4538040784575033e+00 -7.0921599916721256e-01 0.0000000000000000e+00  1.4650579601403633e+00 -6.8594670470078667e-01 0.0000000000000000e+00  1.4759424527571645e+00 -6.6159855416600788e-01 0.0000000000000000e+00  1.4864404322523486e+00 -6.3614937696094320e-01 0.0000000000000000e+00  1.4965344226936139e+00 -6.0957684479002405e-01 0.0000000000000000e+00  1.5062065937696958e+00 -5.8185847773248900e-01 0.0000000000000000e+00  1.5154387583844806e+00 -5.5297165057866271e-01 0.0000000000000000e+00  1.5242123703517021e+00 -5.2289359943942815e-01 0.0000000000000000e+00  1.5325085221945602e+00 -4.9160142863428891e-01 0.0000000000000000e+00  1.5403079430546807e+00 -4.5907211786344426e-01 0.0000000000000000e+00  1.5475909967149208e+00 -4.2528252966933811e-01 0.0000000000000000e+00  1.5543376797406276e+00 -3.9020941719317181e-01 0.0000000000000000e+00  1.5605276197440143e+00 -3.5382943223189356e-01 0.0000000000000000e+00  1.5661400737764346e+00 -3.1611913360120547e-01 0.0000000000000000e+00  1.5711539268534125e+00 -2.7705499581016180e-01 0.0000000000000000e+00  1.5755476906173682e+00 -2.3661341805294023e-01 0.0000000000000000e+00  1.5792995021430729e+00 -1.9477073352339236e-01 0.0000000000000000e+00  1.5823871228909669e+00 -1.5150321905801123e-01 0.0000000000000000e+00  1.5847879378135379e+00 -1.0678710511294520e-01 0.0000000000000000e+00  1.5864789546200766e+00 -6.0598586080723660e-02 0.0000000000000000e+00  1.5874368032051900e+00 -1.2913830952352878e-02 0.0000000000000000e+00  1.5876377352465594e+00 3.6291005669533360e-02 0.0000000000000000e+00  1.5870576239775169e+00 8.7039772200797172e-02 0.0000000000000000e+00  1.5856719641400969e+00 1.3935630834349921e-01 0.0000000000000000e+00  1.5834558721243202e+00 1.9326443298550444e-01 0.0000000000000000e+00  1.5803840862995489e+00 2.4878793172630020e-01 0.0000000000000000e+00  1.5764309675438473e+00 3.0595054402335409e-01 0.0000000000000000e+00  1.5715704999773741e+00 3.6477594995333473e-01 0.0000000000000000e+00  1.5657762919059108e+00 4.2528775658254414e-01 0.0000000000000000e+00  1.5590215769807356e+00 4.8750948394090843e-01 0.0000000000000000e+00  1.5512792155811359e+00 5.5146455059390553e-01 0.0000000000000000e+00  1.5425216964259350e+00 6.1717625880681837e-01 0.0000000000000000e+00  1.5327211384205084e+00 6.8466777929573164e-01 0.0000000000000000e+00  1.5218492927458482e+00 7.5396213555971969e-01 0.0000000000000000e+00  1.4749507186992976e+00 8.2508218778870224e-01 0.0000000000000000e+00  1.0317747299780957e+00 -1.0237143166023579e+00 0.0000000000000000e+00  1.0480218131664205e+00 -1.0234617727396234e+00 0.0000000000000000e+00  1.0642648461705357e+00 -1.0226936053646409e+00 0.0000000000000000e+00  1.0804956443576044e+00 -1.0213938278185499e+00 0.0000000000000000e+00  1.0967057693547624e+00 -1.0195462096344565e+00 0.0000000000000000e+00  1.1128865251797302e+00 -1.0171342768479708e+00 0.0000000000000000e+00  1.1290289543763645e+00 -1.0141413124383685e+00 0.0000000000000000e+00  1.1451238341572219e+00 -1.0105503569043046e+00 0.0000000000000000e+00  1.1611616725552669e+00 -1.0063442089780645e+00 0.0000000000000000e+00  1.1771327045869353e+00 -1.0015054264823995e+00 0.0000000000000000e+00  1.1930268884288002e+00 -9.9601632733404255e-01 0.0000000000000000e+00  1.2088339016101819e+00 -9.8985899069806760e-01 0.0000000000000000e+00  1.2245431372240887e+00 -9.8301525829730407e-01 0.0000000000000000e+00  1.2401437001589526e+00 -9.7546673588108179e-01 0.0000000000000000e+00  1.2556244033536899e+00 -9.6719479485763626e-01 0.0000000000000000e+00  1.2709737640786796e+00 -9.5818057409455459e-01 0.0000000000000000e+00  1.2861800002453347e+00 -9.4840498189171174e-01 0.0000000000000000e+00  1.3012310267469960e+00 -9.3784869813118543e-01 0.0000000000000000e+00  1.3161144518339625e+00 -9.2649217660870620e-01 0.0000000000000000e+00  1.3308175735255421e+00 -9.1431564755125039e-01 0.0000000000000000e+00  1.3453273760620688e+00 -9.0129912032542947e-01 0.0000000000000000e+00  1.3596305263999233e+00 -8.8742238634139536e-01 0.0000000000000000e+00  1.3737133707526572e+00 -8.7266502215702690e-01 0.0000000000000000e+00  1.3875619311813971e+00 -8.5700639278721102e-01 0.0000000000000000e+00  1.4011619022377895e+00 -8.4042565522309254e-01 0.0000000000000000e+00  1.4144986476628145e+00 -8.2290176216621203e-01 0.0000000000000000e+00  1.4275571971448824e+00 -8.0441346598249641e-01 0.0000000000000000e+00  1.4403222431407001e+00 -7.8493932288112545e-01 0.0000000000000000e+00  1.4527781377624782e+00 -7.6445769732333824e-01 0.0000000000000000e+00  1.4649088897351294e+00 -7.4294676666628834e-01 0.0000000000000000e+00  1.4766981614271875e+00 -7.2038452604711312e-01 0.0000000000000000e+00  1.4881292659592580e+00 -6.9674879351241203e-01 0.0000000000000000e+00  1.4991851643939023e+00 -6.7201721539838666e-01 0.0000000000000000e+00  1.5098484630109257e+00 -6.4616727196692592e-01 0.0000000000000000e+00  1.5201014106721369e+00 -6.1917628330296881e-01 0.0000000000000000e+00  1.5299258962797255e+00 -5.9102141547851283e-01 0.0000000000000000e+00  1.5393034463324882e+00 -5.6167968698867388e-01 0.0000000000000000e+00  1.5482152225842223e+00 -5.3112797546524360e-01 0.0000000000000000e+00  1.5566420198086925e+00 -4.9934302467322000e-01 0.0000000000000000e+00  1.5645642636756629e+00 -4.6630145179583038e-01 0.0000000000000000e+00  1.5719620087425659e+00 -4.3197975501357933e-01 0.0000000000000000e+00  1.5788149365664883e+00 -3.9635432138291038e-01 0.0000000000000000e+00  1.5851023539412175e+00 -3.5940143502007382e-01 0.0000000000000000e+00  1.5908031912641962e+00 -3.2109728559583273e-01 0.0000000000000000e+00  1.5958960010383272e+00 -2.8141797714666583e-01 0.0000000000000000e+00  1.6003589565136360e+00 -2.4033953720813739e-01 0.0000000000000000e+00  1.6041698504739199e+00 -1.9783792627613361e-01 0.0000000000000000e+00  1.6073060941735779e+00 -1.5388904760168143e-01 0.0000000000000000e+00  1.6097447164299199e+00 -1.0846875732507977e-01 0.0000000000000000e+00  1.6114623628763438e+00 -6.1552874955088210e-02 0.0000000000000000e+00  1.6124352953818453e+00 -1.3117194198928317e-02 0.0000000000000000e+00  1.6126393916424480e+00 3.6862505851135152e-02 0.0000000000000000e+00  1.6120501449501923e+00 8.8410449168867089e-02 0.0000000000000000e+00  1.6106426641454528e+00 1.4155085087700892e-01 0.0000000000000000e+00  1.6083916737584101e+00 1.9630790495633144e-01 0.0000000000000000e+00  1.6052715143456295e+00 2.5270577157501029e-01 0.0000000000000000e+00  1.6012561430277550e+00 3.1076856403257169e-01 0.0000000000000000e+00  1.5963191342344500e+00 3.7052033531263118e-01 0.0000000000000000e+00  1.5904336806627866e+00 4.3198506423869132e-01 0.0000000000000000e+00  1.5835725944553836e+00 4.9518664122725542e-01 0.0000000000000000e+00  1.5757083086046901e+00 5.6014885363254607e-01 0.0000000000000000e+00  1.5668128785898909e+00 6.2689537067712897e-01 0.0000000000000000e+00  1.5568579842530077e+00 6.9544972796277382e-01 0.0000000000000000e+00  1.5458149319208634e+00 7.6583531155590978e-01 0.0000000000000000e+00  1.4981778127970968e+00 8.3807534164206365e-01 0.0000000000000000e+00  1.0480228177528974e+00 -1.0398354713362301e+00 0.0000000000000000e+00  1.0645257552726550e+00 -1.0395789504863395e+00 0.0000000000000000e+00  1.0810245788270834e+00 -1.0387986862353904e+00 0.0000000000000000e+00  1.0975109748941314e+00 -1.0374784401712760e+00 0.0000000000000000e+00  1.1139763722158982e+00 -1.0356017262344399e+00 0.0000000000000000e+00  1.1304119378683100e+00 -1.0331518110333020e+00 0.0000000000000000e+00  1.1468085733358142e+00 -1.0301117142923670e+00 0.0000000000000000e+00  1.1631569105931980e+00 -1.0264642094370049e+00 0.0000000000000000e+00  1.1794473081966959e+00 -1.0221918243189498e+00 0.0000000000000000e+00  1.1956698473866276e+00 -1.0172768420866287e+00 0.0000000000000000e+00  1.2118143282038574e+00 -1.0117013022044801e+00 0.0000000000000000e+00  1.2278702656224454e+00 -1.0054470016254917e+00 0.0000000000000000e+00  1.2438268857009194e+00 -9.9849549612123545e-01 0.0000000000000000e+00  1.2596731217546697e+00 -9.9082810177374259e-01 0.0000000000000000e+00  1.2753976105520348e+00 -9.8242589663361346e-01 0.0000000000000000e+00  1.2909886885367139e+00 -9.7326972254881905e-01 0.0000000000000000e+00  1.3064343880792220e+00 -9.6334018716870362e-01 0.0000000000000000e+00  1.3217224337601614e+00 -9.5261766612775778e-01 0.0000000000000000e+00  1.3368402386881695e+00 -9.4108230541378446e-01 0.0000000000000000e+00  1.3517749008554627e+00 -9.2871402392513458e-01 0.0000000000000000e+00  1.3665131995339848e+00 -9.1549251622175043e-01 0.0000000000000000e+00  1.3810415917152317e+00 -9.0139725547480098e-01 0.0000000000000000e+00  1.3953462085969042e+00 -8.8640749661974971e-01 0.0000000000000000e+00  1.4094128521196208e+00 -8.7050227971775074e-01 0.0000000000000000e+00  1.4232269915569964e+00 -8.5366043353032028e-01 0.0000000000000000e+00  1.4367737601624695e+00 -8.3586057931227564e-01 0.0000000000000000e+00  1.4500379518763460e+00 -8.1708113482799460e-01 0.0000000000000000e+00  1.4630040180966015e+00 -7.9730031859608808e-01 0.0000000000000000e+00  1.4756560645170698e+00 -7.7649615436763497e-01 0.0000000000000000e+00  1.4879778480367238e+00 -7.5464647584316957e-01 0.0000000000000000e+00  1.4999527737438374e+00 -7.3172893163366071e-01 0.0000000000000000e+00  1.5115638919789032e+00 -7.0772099047077053e-01 0.0000000000000000e+00  1.5227938954802602e+00 -6.8259994667171653e-01 0.0000000000000000e+00  1.5336251166164772e+00 -6.5634292586411480e-01 0.0000000000000000e+00  1.5440395247096115e+00 -6.2892689097621113e-01 0.0000000000000000e+00  1.5540187234535630e+00 -6.0032864849795897e-01 0.0000000000000000e+00  1.5635439484318132e+00 -5.7052485501843253e-01 0.0000000000000000e+00  1.5725960647389492e+00 -5.3949202404510643e-01 0.0000000000000000e+00  1.5811555647104298e+00 -5.0720653311056818e-01 0.0000000000000000e+00  1.5892025657651700e+00 -4.7364463117225974e-01 0.0000000000000000e+00  1.5967168083655849e+00 -4.3878244631088115e-01 0.0000000000000000e+00  1.6036776540998441e+00 -4.0259599373312205e-01 0.0000000000000000e+00  1.6100640838911533e+00 -3.6506118408440669e-01 0.0000000000000000e+00  1.6158546963389944e+00 -3.2615383207737159e-01 0.0000000000000000e+00  1.6210277061973359e+00 -2.8584966544182611e-01 0.0000000000000000e+00  1.6255609429949054e+00 -2.4412433420195012e-01 0.0000000000000000e+00  1.6294318498027305e+00 -2.0095342028652441e-01 0.0000000000000000e+00  1.6326174821542276e+00 -1.5631244747799555e-01 0.0000000000000000e+00  1.6350945071232157e+00 -1.1017689170619516e-01 0.0000000000000000e+00  1.6368392025653322e+00 -6.2522191692553575e-02 0.0000000000000000e+00  1.6378274565284052e+00 -1.3323759950647940e-02 0.0000000000000000e+00  1.6380347668374435e+00 3.7443005851053535e-02 0.0000000000000000e+00  1.6374362408599927e+00 8.9802711158396109e-02 0.0000000000000000e+00  1.6360065954576986e+00 1.4377995242681751e-01 0.0000000000000000e+00  1.6337201571300093e+00 1.9939930463684630e-01 0.0000000000000000e+00  1.6305508623560521e+00 2.5668530842394710e-01 0.0000000000000000e+00  1.6264722581407967e+00 3.1566245681685934e-01 0.0000000000000000e+00  1.6214575027717246e+00 3.7635518157857573e-01 0.0000000000000000e+00  1.6154793667923140e+00 4.3878783914412312e-01 0.0000000000000000e+00  1.6085102341987290e+00 5.0298469614932206e-01 0.0000000000000000e+00  1.6005221038662163e+00 5.6896991454471735e-01 0.0000000000000000e+00  1.5914865912117906e+00 6.3676753628889471e-01 0.0000000000000000e+00  1.5813749300998792e+00 7.0640146761542155e-01 0.0000000000000000e+00  1.5701579749977008e+00 7.7789546286768596e-01 0.0000000000000000e+00  1.5217706804040636e+00 8.5127310789593014e-01 0.0000000000000000e+00  1.0645267756790671e+00 -1.0562104973169320e+00 0.0000000000000000e+00  1.0812895966497105e+00 -1.0559499368514511e+00 0.0000000000000000e+00  1.0980482388694970e+00 -1.0551573852264573e+00 0.0000000000000000e+00  1.1147942578974535e+00 -1.0538163483120626e+00 0.0000000000000000e+00  1.1315189474980076e+00 -1.0519100804310486e+00 0.0000000000000000e+00  1.1482133356487709e+00 -1.0494215846792612e+00 0.0000000000000000e+00  1.1648681805534196e+00 -1.0463336133807746e+00 0.0000000000000000e+00  1.1814739666618095e+00 -1.0426286686818818e+00 0.0000000000000000e+00  1.1980209006995284e+00 -1.0382890032880174e+00 0.0000000000000000e+00  1.2144989077091592e+00 -1.0332966213477928e+00 0.0000000000000000e+00  1.2308976271055820e+00 -1.0276332794883667e+00 0.0000000000000000e+00  1.2472064087477239e+00 -1.0212804880064468e+00 0.0000000000000000e+00  1.2634143090292225e+00 -1.0142195122192710e+00 0.0000000000000000e+00  1.2795100869905431e+00 -1.0064313739799746e+00 0.0000000000000000e+00  1.2954822004551636e+00 -9.9789685336181311e-01 0.0000000000000000e+00  1.3113188021924977e+00 -9.8859649051576226e-01 0.0000000000000000e+00  1.3270077361103185e+00 -9.7851058770607957e-01 0.0000000000000000e+00  1.3425365334795014e+00 -9.6761921152846631e-01 0.0000000000000000e+00  1.3578924091939863e+00 -9.5590219531552711e-01 0.0000000000000000e+00  1.3730622580689305e+00 -9.4333914173427580e-01 0.0000000000000000e+00  1.3880326511801055e+00 -9.2990942558050227e-01 0.0000000000000000e+00  1.4027898322476560e+00 -9.1559219677485659e-01 0.0000000000000000e+00  1.4173197140674247e+00 -9.0036638356557086e-01 0.0000000000000000e+00  1.4316078749931300e+00 -8.8421069594279156e-01 0.0000000000000000e+00  1.4456395554727415e+00 -8.6710362926953954e-01 0.0000000000000000e+00  1.4593996546425050e+00 -8.4902346813438379e-01 0.0000000000000000e+00  1.4728727269821293e+00 -8.2994829043094431e-01 0.0000000000000000e+00  1.4860429790347369e+00 -8.0985597166941081e-01 0.0000000000000000e+00  1.4988942661952602e+00 -7.8872418952529866e-01 0.0000000000000000e+00  1.5114100895710501e+00 -7.6653042863071730e-01 0.0000000000000000e+00  1.5235735929185461e+00 -7.4325198561347439e-01 0.0000000000000000e+00  1.5353675596599432e+00 -7.1886597438938460e-01 0.0000000000000000e+00  1.5467744099838674e+00 -6.9334933171319002e-01 0.0000000000000000e+00  1.5577761980341753e+00 -6.6667882299355563e-01 0.0000000000000000e+00  1.5683546091910634e+00 -6.3883104837763482e-01 0.0000000000000000e+00  1.5784909574487629e+00 -6.0978244911074375e-01 0.0000000000000000e+00  1.5881661828941933e+00 -5.7950931417672391e-01 0.0000000000000000e+00  1.5973608492910272e+00 -5.4798778722461017e-01 0.0000000000000000e+00  1.6060551417737066e+00 -5.1519387378725678e-01 0.0000000000000000e+00  1.6142288646560532e+00 -4.8110344879760869e-01 0.0000000000000000e+00  1.6218614393591892e+00 -4.4569226440833787e-01 0.0000000000000000e+00  1.6289319024635882e+00 -4.0893595812059846e-01 0.0000000000000000e+00  1.6354189038901603e+00 -3.7081006122767834e-01 0.0000000000000000e+00  1.6413007052153687e+00 -3.3129000757935700e-01 0.0000000000000000e+00  1.6465551781254750e+00 -2.9035114267280537e-01 0.0000000000000000e+00  1.6511598030150874e+00 -2.4796873307588108e-01 0.0000000000000000e+00  1.6550916677352880e+00 -2.0411797618869443e-01 0.0000000000000000e+00  1.6583274664967211e+00 -1.5877401034935068e-01 0.0000000000000000e+00  1.6608434989330825e+00 -1.1191192528977112e-01 0.0000000000000000e+00  1.6626156693305942e+00 -6.3506772947528711e-02 0.0000000000000000e+00  1.6636194860290869e+00 -1.3533578639629562e-02 0.0000000000000000e+00  1.6638300610004593e+00 3.8032647395805697e-02 0.0000000000000000e+00  1.6632221096103339e+00 9.1216898084013120e-02 0.0000000000000000e+00  1.6617699505688621e+00 1.4604415721824249e-01 0.0000000000000000e+00  1.6594475060766871e+00 2.0253938677865513e-01 0.0000000000000000e+00  1.6562283021722046e+00 2.6072751385949089e-01 0.0000000000000000e+00  1.6520854692863265e+00 3.2063341719856875e-01 0.0000000000000000e+00  1.6469917430110690e+00 3.8228191330316452e-01 0.0000000000000000e+00  1.6409194650883632e+00 4.4569774216634617e-01 0.0000000000000000e+00  1.6338405846255919e+00 5.1090555256784431e-01 0.0000000000000000e+00  1.6257266595444506e+00 5.7792988695355896e-01 0.0000000000000000e+00  1.6165488582698113e+00 6.4679516588783437e-01 0.0000000000000000e+00  1.6062779616653828e+00 7.1752567207263640e-01 0.0000000000000000e+00  1.5948843652230251e+00 7.9014553392783116e-01 0.0000000000000000e+00  1.5457350816148294e+00 8.6467870872675756e-01 0.0000000000000000e+00  1.0812906331251853e+00 -1.0728433924348775e+00 0.0000000000000000e+00  1.0983174301155649e+00 -1.0725787287391169e+00 0.0000000000000000e+00  1.1153399825493373e+00 -1.0717736962420930e+00 0.0000000000000000e+00  1.1323497130049331e+00 -1.0704115410691661e+00 0.0000000000000000e+00  1.1493377781435195e+00 -1.0684752538370739e+00 0.0000000000000000e+00  1.1662950646539139e+00 -1.0659475699793679e+00 0.0000000000000000e+00  1.1832121852026778e+00 -1.0628109702087492e+00 0.0000000000000000e+00  1.2000794743915553e+00 -1.0590476811204081e+00 0.0000000000000000e+00  1.2168869847245034e+00 -1.0546396759405574e+00 0.0000000000000000e+00  1.2336244825866116e+00 -1.0495686754243851e+00 0.0000000000000000e+00  1.2502814442372836e+00 -1.0438161489077296e+00 0.0000000000000000e+00  1.2668470518201300e+00 -1.0373633155168405e+00 0.0000000000000000e+00  1.2833101893920633e+00 -1.0301911455406305e+00 0.0000000000000000e+00  1.2996594389741949e+00 -1.0222803619699088e+00 0.0000000000000000e+00  1.3158830766271701e+00 -1.0136114422081257e+00 0.0000000000000000e+00  1.3319690685536667e+00 -1.0041646199582246e+00 0.0000000000000000e+00  1.3479050672308612e+00 -9.9391988729026126e-01 0.0000000000000000e+00  1.3636784075757160e+00 -9.8285699689449535e-01 0.0000000000000000e+00  1.3792761031460457e+00 -9.7095546452472914e-01 0.0000000000000000e+00  1.3946848423803768e+00 -9.5819457163672139e-01 0.0000000000000000e+00  1.4098909848796950e+00 -9.4455336822655644e-01 0.000000000000000