<?xml version="1.0"?>
<VTKFile type="UnstructuredGrid"  version="0.1"  >
<UnstructuredGrid>
<Piece  NumberOfPoints="81" NumberOfCells="128">
<Points>
<DataArray  type="Float64"  NumberOfComponents="3"  format="ascii">0 0 0  0.125 0 0  0.25 0 0  0.375 0 0  0.5 0 0  0.625 0 0  0.75 0 0  0.875 0 0  1 0 0  0 0.125 0  0.125 0.125 0  0.25 0.125 0  0.375 0.125 0  0.5 0.125 0  0.625 0.125 0  0.75 0.125 0  0.875 0.125 0  1 0.125 0  0 0.25 0  0.125 0.25 0  0.25 0.25 0  0.375 0.25 0  0.5 0.25 0  0.625 0.25 0  0.75 0.25 0  0.875 0.25 0  1 0.25 0  0 0.375 0  0.125 0.375 0  0.25 0.375 0  0.375 0.375 0  0.5 0.375 0  0.625 0.375 0  0.75 0.375 0  0.875 0.375 0  1 0.375 0  0 0.5 0  0.125 0.5 0  0.25 0.5 0  0.375 0.5 0  0.5 0.5 0  0.625 0.5 0  0.75 0.5 0  0.875 0.5 0  1 0.5 0  0 0.625 0  0.125 0.625 0  0.25 0.625 0  0.375 0.625 0  0.5 0.625 0  0.625 0.625 0  0.75 0.625 0  0.875 0.625 0  1 0.625 0  0 0.75 0  0.125 0.75 0  0.25 0.75 0  0.375 0.75 0  0.5 0.75 0  0.625 0.75 0  0.75 0.75 0  0.875 0.75 0  1 0.75 0  0 0.875 0  0.125 0.875 0  0.25 0.875 0  0.375 0.875 0  0.5 0.875 0  0.625 0.875 0  0.75 0.875 0  0.875 0.875 0  1 0.875 0  0 1 0  0.125 1 0  0.25 1 0  0.375 1 0  0.5 1 0  0.625 1 0  0.75 1 0  0.875 1 0  1 1 0  </DataArray>
</Points>
<Cells>
<DataArray  type="UInt32"  Name="connectivity"  format="ascii">0 1 10  0 9 10  1 2 11  1 10 11  2 3 12  2 11 12  3 4 13  3 12 13  4 5 14  4 13 14  5 6 15  5 14 15  6 7 16  6 15 16  7 8 17  7 16 17  9 10 19  9 18 19  10 11 20  10 19 20  11 12 21  11 20 21  12 13 22  12 21 22  13 14 23  13 22 23  14 15 24  14 23 24  15 16 25  15 24 25  16 17 26  16 25 26  18 19 28  18 27 28  19 20 29  19 28 29  20 21 30  20 29 30  21 22 31  21 30 31  22 23 32  22 31 32  23 24 33  23 32 33  24 25 34  24 33 34  25 26 35  25 34 35  27 28 37  27 36 37  28 29 38  28 37 38  29 30 39  29 38 39  30 31 40  30 39 40  31 32 41  31 40 41  32 33 42  32 41 42  33 34 43  33 42 43  34 35 44  34 43 44  36 37 46  36 45 46  37 38 47  37 46 47  38 39 48  38 47 48  39 40 49  39 48 49  40 41 50  40 49 50  41 42 51  41 50 51  42 43 52  42 51 52  43 44 53  43 52 53  45 46 55  45 54 55  46 47 56  46 55 56  47 48 57  47 56 57  48 49 58  48 57 58  49 50 59  49 58 59  50 51 60  50 59 60  51 52 61  51 60 61  52 53 62  52 61 62  54 55 64  54 63 64  55 56 65  55 64 65  56 57 66  56 65 66  57 58 67  57 66 67  58 59 68  58 67 68  59 60 69  59 68 69  60 61 70  60 69 70  61 62 71  61 70 71  63 64 73  63 72 73  64 65 74  64 73 74  65 66 75  65 74 75  66 67 76  66 75 76  67 68 77  67 76 77  68 69 78  68 77 78  69 70 79  69 78 79  70 71 80  70 79 80  </DataArray>
<DataArray  type="UInt32"  Name="offsets"  format="ascii">3 6 9 12 15 18 21 24 27 30 33 36 39 42 45 48 51 54 57 60 63 66 69 72 75 78 81 84 87 90 93 96 99 102 105 108 111 114 117 120 123 126 129 132 135 138 141 144 147 150 153 156 159 162 165 168 171 174 177 180 183 186 189 192 195 198 201 204 207 210 213 216 219 222 225 228 231 234 237 240 243 246 249 252 255 258 261 264 267 270 273 276 279 282 285 288 291 294 297 300 303 306 309 312 315 318 321 324 327 330 333 336 339 342 345 348 351 354 357 360 363 366 369 372 375 378 381 384 </DataArray>
<DataArray  type="UInt8"  Name="types"  format="ascii">5 5 5 5 5 5 5 5 5 5 5 5 5 5 5 5 5 5 5 5 5 5 5 5 5 5 5 5 5 5 5 5 5 5 5 5 5 5 5 5 5 5 5 5 5 5 5 5 5 5 5 5 5 5 5 5 5 5 5 5 5 5 5 5 5 5 5 5 5 5 5 5 5 5 5 5 5 5 5 5 5 5 5 5 5 5 5 5 5 5 5 5 5 5 5 5 5 5 5 5 5 5 5 5 5 5 5 5 5 5 5 5 5 5 5 5 5 5 5 5 5 5 5 5 5 5 5 5 </DataArray>
</Cells>
<PointData  Vectors="f_1533"> 
<DataArray  type="Float64"  Name="f_1533"  NumberOfComponents="3" format="ascii">6.2743981710321806e-02 -6.2500000000000000e-02 0.0000000000000000e+00  1.8603191061885072e-01 -6.1038332847260970e-02 0.0000000000000000e+00  3.0058798499350448e-01 -5.6691339493563378e-02 0.0000000000000000e+00  4.0083724291171174e-01 -4.9572213969065401e-02 0.0000000000000000e+00  4.8157803376880159e-01 -3.9866862036766954e-02 0.0000000000000000e+00  5.3811994705954014e-01 -2.7829832744839314e-02 0.0000000000000000e+00  5.6641053611885672e-01 -1.3778737428520017e-02 0.0000000000000000e+00  5.6314802399974295e-01 1.9127316433249011e-03 0.0000000000000000e+00  5.5481725789919778e-01 1.8823042433734782e-02 0.0000000000000000e+00  6.3476006293453013e-02 -1.8750000000000000e-01 0.0000000000000000e+00  1.8966823944358144e-01 -1.8311499854178290e-01 0.0000000000000000e+00  3.0703398745040583e-01 -1.7007401848069012e-01 0.0000000000000000e+00  4.0992475573744092e-01 -1.4871664190719622e-01 0.0000000000000000e+00  4.9306903967145355e-01 -1.1960058611030086e-01 0.0000000000000000e+00  5.5171179021897210e-01 -8.3489498234517956e-02 0.0000000000000000e+00  5.8174256974824978e-01 -4.1336212285560031e-02 0.0000000000000000e+00  5.7980955620083341e-01 5.7381949299747104e-03 0.0000000000000000e+00  5.5481725789919778e-01 5.6469127301204347e-02 0.0000000000000000e+00  6.4208030876584193e-02 -3.1250000000000000e-01 0.0000000000000000e+00  1.9330456826831213e-01 -3.0519166423630484e-01 0.0000000000000000e+00  3.1347998990730719e-01 -2.8345669746781688e-01 0.0000000000000000e+00  4.1901226856316998e-01 -2.4786106984532699e-01 0.0000000000000000e+00  5.0456004557410528e-01 -1.9933431018383477e-01 0.0000000000000000e+00  5.6530363337840384e-01 -1.3914916372419656e-01 0.0000000000000000e+00  5.9707460337764284e-01 -6.8893687142600080e-02 0.0000000000000000e+00  5.9647108840192387e-01 9.5636582166244988e-03 0.0000000000000000e+00  5.5481725789919778e-01 9.4115212168674023e-02 0.0000000000000000e+00  6.4940055459715373e-02 -4.3750000000000000e-01 0.0000000000000000e+00  1.9694089709304294e-01 -4.2726832993082681e-01 0.0000000000000000e+00  3.1992599236420849e-01 -3.9683937645494360e-01 0.0000000000000000e+00  4.2809978138889915e-01 -3.4700549778345785e-01 0.0000000000000000e+00  5.1605105147675712e-01 -2.7906803425736870e-01 0.0000000000000000e+00  5.7889547653783580e-01 -1.9480882921387518e-01 0.0000000000000000e+00  6.1240663700703590e-01 -9.6451161999640100e-02 0.0000000000000000e+00  6.1313262060301454e-01 1.3389121503274259e-02 0.0000000000000000e+00  5.5481725789919778e-01 1.3176129703614359e-01 0.0000000000000000e+00  6.5672080042846526e-02 -5.6250000000000000e-01 0.0000000000000000e+00  2.0057722591777360e-01 -5.4934499562534878e-01 0.0000000000000000e+00  3.2637199482110996e-01 -5.1022205544207044e-01 0.0000000000000000e+00  4.3718729421462826e-01 -4.4614992572158862e-01 0.0000000000000000e+00  5.2754205737940896e-01 -3.5880175833090255e-01 0.0000000000000000e+00  5.9248731969726776e-01 -2.5046849470355387e-01 0.0000000000000000e+00  6.2773867063642896e-01 -1.2400863685668012e-01 0.0000000000000000e+00  6.2979415280410478e-01 1.7214584789924103e-02 0.0000000000000000e+00  5.5481725789919778e-01 1.6940738190361315e-01 0.0000000000000000e+00  6.6404104625977789e-02 -6.8750000000000000e-01 0.0000000000000000e+00  2.0421355474250436e-01 -6.7142166131987069e-01 0.0000000000000000e+00  3.3281799727801131e-01 -6.2360473442919717e-01 0.0000000000000000e+00  4.4627480704035727e-01 -5.4529435365971934e-01 0.0000000000000000e+00  5.3903306328206080e-01 -4.3853548240443652e-01 0.0000000000000000e+00  6.0607916285669949e-01 -3.0612816019323241e-01 0.0000000000000000e+00  6.4307070426582191e-01 -1.5156611171372014e-01 0.0000000000000000e+00  6.4645568500519535e-01 2.1040048076573892e-02 0.0000000000000000e+00  5.5481725789919778e-01 2.0705346677108283e-01 0.0000000000000000e+00  6.7136129209109052e-02 -8.1250000000000000e-01 0.0000000000000000e+00  2.0784988356723499e-01 -7.9349832701439260e-01 0.0000000000000000e+00  3.3926399973491261e-01 -7.3698741341632390e-01 0.0000000000000000e+00  4.5536231986608650e-01 -6.4443878159785029e-01 0.0000000000000000e+00  5.5052406918471264e-01 -5.1826920647797037e-01 0.0000000000000000e+00  6.1967100601613156e-01 -3.6178782568291112e-01 0.0000000000000000e+00  6.5840273789521486e-01 -1.7912358657076016e-01 0.0000000000000000e+00  6.6311721720628569e-01 2.4865511363223680e-02 0.0000000000000000e+00  5.5481725789919778e-01 2.4469955163855228e-01 0.0000000000000000e+00  6.7868153792240205e-02 -9.3750000000000000e-01 0.0000000000000000e+00  2.1148621239196586e-01 -9.1557499270891463e-01 0.0000000000000000e+00  3.4571000219181391e-01 -8.5037009240345063e-01 0.0000000000000000e+00  4.6444983269181567e-01 -7.4358320953598112e-01 0.0000000000000000e+00  5.6201507508736448e-01 -5.9800293055150433e-01 0.0000000000000000e+00  6.3326284917556341e-01 -4.1744749117258978e-01 0.0000000000000000e+00  6.7373477152460792e-01 -2.0668106142780018e-01 0.0000000000000000e+00  6.7977874940737615e-01 2.8690974649873469e-02 0.0000000000000000e+00  5.5481725789919778e-01 2.8234563650602196e-01 0.0000000000000000e+00  6.2377969418756174e-02 -9.3750000000000000e-01 0.0000000000000000e+00  1.8421374620648534e-01 -9.1557499270891463e-01 0.0000000000000000e+00  2.9736498376505383e-01 -8.5037009240345063e-01 0.0000000000000000e+00  3.9629348649884716e-01 -7.4358320953598112e-01 0.0000000000000000e+00  4.7583253081747573e-01 -5.9800293055150433e-01 0.0000000000000000e+00  5.3132402547982416e-01 -4.1744749117258978e-01 0.0000000000000000e+00  5.5874451930416025e-01 -2.0668106142780018e-01 0.0000000000000000e+00  5.5481725789919778e-01 2.8690974649873469e-02 0.0000000000000000e+00  5.5481725789919778e-01 1.5365246615805184e-01 0.0000000000000000e+00  </DataArray> 
</PointData> 
</Piece>
</UnstructuredGrid>
</VTKFile>