<?xml version="1.0"?>
<VTKFile type="UnstructuredGrid"  version="0.1"  >
<UnstructuredGrid>
<Piece  NumberOfPoints="81" NumberOfCells="128">
<Points>
<DataArray  type="Float64"  NumberOfComponents="3"  format="ascii">0 0 0  0.125 0 0  0.25 0 0  0.375 0 0  0.5 0 0  0.625 0 0  0.75 0 0  0.875 0 0  1 0 0  0 0.125 0  0.125 0.125 0  0.25 0.125 0  0.375 0.125 0  0.5 0.125 0  0.625 0.125 0  0.75 0.125 0  0.875 0.125 0  1 0.125 0  0 0.25 0  0.125 0.25 0  0.25 0.25 0  0.375 0.25 0  0.5 0.25 0  0.625 0.25 0  0.75 0.25 0  0.875 0.25 0  1 0.25 0  0 0.375 0  0.125 0.375 0  0.25 0.375 0  0.375 0.375 0  0.5 0.375 0  0.625 0.375 0  0.75 0.375 0  0.875 0.375 0  1 0.375 0  0 0.5 0  0.125 0.5 0  0.25 0.5 0  0.375 0.5 0  0.5 0.5 0  0.625 0.5 0  0.75 0.5 0  0.875 0.5 0  1 0.5 0  0 0.625 0  0.125 0.625 0  0.25 0.625 0  0.375 0.625 0  0.5 0.625 0  0.625 0.625 0  0.75 0.625 0  0.875 0.625 0  1 0.625 0  0 0.75 0  0.125 0.75 0  0.25 0.75 0  0.375 0.75 0  0.5 0.75 0  0.625 0.75 0  0.75 0.75 0  0.875 0.75 0  1 0.75 0  0 0.875 0  0.125 0.875 0  0.25 0.875 0  0.375 0.875 0  0.5 0.875 0  0.625 0.875 0  0.75 0.875 0  0.875 0.875 0  1 0.875 0  0 1 0  0.125 1 0  0.25 1 0  0.375 1 0  0.5 1 0  0.625 1 0  0.75 1 0  0.875 1 0  1 1 0  </DataArray>
</Points>
<Cells>
<DataArray  type="UInt32"  Name="connectivity"  format="ascii">0 1 10  0 9 10  1 2 11  1 10 11  2 3 12  2 11 12  3 4 13  3 12 13  4 5 14  4 13 14  5 6 15  5 14 15  6 7 16  6 15 16  7 8 17  7 16 17  9 10 19  9 18 19  10 11 20  10 19 20  11 12 21  11 20 21  12 13 22  12 21 22  13 14 23  13 22 23  14 15 24  14 23 24  15 16 25  15 24 25  16 17 26  16 25 26  18 19 28  18 27 28  19 20 29  19 28 29  20 21 30  20 29 30  21 22 31  21 30 31  22 23 32  22 31 32  23 24 33  23 32 33  24 25 34  24 33 34  25 26 35  25 34 35  27 28 37  27 36 37  28 29 38  28 37 38  29 30 39  29 38 39  30 31 40  30 39 40  31 32 41  31 40 41  32 33 42  32 41 42  33 34 43  33 42 43  34 35 44  34 43 44  36 37 46  36 45 46  37 38 47  37 46 47  38 39 48  38 47 48  39 40 49  39 48 49  40 41 50  40 49 50  41 42 51  41 50 51  42 43 52  42 51 52  43 44 53  43 52 53  45 46 55  45 54 55  46 47 56  46 55 56  47 48 57  47 56 57  48 49 58  48 57 58  49 50 59  49 58 59  50 51 60  50 59 60  51 52 61  51 60 61  52 53 62  52 61 62  54 55 64  54 63 64  55 56 65  55 64 65  56 57 66  56 65 66  57 58 67  57 66 67  58 59 68  58 67 68  59 60 69  59 68 69  60 61 70  60 69 70  61 62 71  61 70 71  63 64 73  63 72 73  64 65 74  64 73 74  65 66 75  65 74 75  66 67 76  66 75 76  67 68 77  67 76 77  68 69 78  68 77 78  69 70 79  69 78 79  70 71 80  70 79 80  </DataArray>
<DataArray  type="UInt32"  Name="offsets"  format="ascii">3 6 9 12 15 18 21 24 27 30 33 36 39 42 45 48 51 54 57 60 63 66 69 72 75 78 81 84 87 90 93 96 99 102 105 108 111 114 117 120 123 126 129 132 135 138 141 144 147 150 153 156 159 162 165 168 171 174 177 180 183 186 189 192 195 198 201 204 207 210 213 216 219 222 225 228 231 234 237 240 243 246 249 252 255 258 261 264 267 270 273 276 279 282 285 288 291 294 297 300 303 306 309 312 315 318 321 324 327 330 333 336 339 342 345 348 351 354 357 360 363 366 369 372 375 378 381 384 </DataArray>
<DataArray  type="UInt8"  Name="types"  format="ascii">5 5 5 5 5 5 5 5 5 5 5 5 5 5 5 5 5 5 5 5 5 5 5 5 5 5 5 5 5 5 5 5 5 5 5 5 5 5 5 5 5 5 5 5 5 5 5 5 5 5 5 5 5 5 5 5 5 5 5 5 5 5 5 5 5 5 5 5 5 5 5 5 5 5 5 5 5 5 5 5 5 5 5 5 5 5 5 5 5 5 5 5 5 5 5 5 5 5 5 5 5 5 5 5 5 5 5 5 5 5 5 5 5 5 5 5 5 5 5 5 5 5 5 5 5 5 5 5 </DataArray>
</Cells>
<<<<<<< HEAD
<PointData  Vectors="f_1530"> 
<DataArray  type="Float64"  Name="f_1530"  NumberOfComponents="3" format="ascii">1.0157785454556527e+00 -1.0078430972064480e+00 0.0000000000000000e+00  1.0317737409662886e+00 -1.0075944686733980e+00 0.0000000000000000e+00  1.0477649490850016e+00 -1.0068382106297045e+00 0.0000000000000000e+00  1.0637441120699245e+00 -1.0055585842666779e+00 0.0000000000000000e+00  1.0797029223730388e+00 -1.0037396107474916e+00 0.0000000000000000e+00  1.0956328188307740e+00 -1.0013650715128999e+00 0.0000000000000000e+00  1.1115249828594731e+00 -9.9841850871556270e-01 0.0000000000000000e+00  1.1273703346577570e+00 -9.9488322578683164e-01 0.0000000000000000e+00  1.1431595294179011e+00 -9.9074228813993070e-01 0.0000000000000000e+00  1.1588829535483778e+00 -9.8597852401350417e-01 0.0000000000000000e+00  1.1745307209098026e+00 -9.8057452545957735e-01 0.0000000000000000e+00  1.1900926690665705e+00 -9.7451264948001726e-01 0.0000000000000000e+00  1.2055583555565401e+00 -9.6777501931564702e-01 0.0000000000000000e+00  1.2209170541811925e+00 -9.6034352589222094e-01 0.0000000000000000e+00  1.2361577513187494e+00 -9.5219982942751979e-01 0.0000000000000000e+00  1.2512691422628128e+00 -9.4332536120388577e-01 0.0000000000000000e+00  1.2662396275891477e+00 -9.3370132551056928e-01 0.0000000000000000e+00  1.2810573095533067e+00 -9.2330870176031277e-01 0.0000000000000000e+00  1.2957099885218624e+00 -9.1212824678465698e-01 0.0000000000000000e+00  1.3101851594400793e+00 -9.0014049731249890e-01 0.0000000000000000e+00  1.3244700083389418e+00 -8.8732577263649404e-01 0.0000000000000000e+00  1.3385514088845127e+00 -8.7366417747194092e-01 0.0000000000000000e+00  1.3524159189726808e+00 -8.5913560501283892e-01 0.0000000000000000e+00  1.3660497773724292e+00 -8.4371974018986673e-01 0.0000000000000000e+00  1.3794389004208241e+00 -8.2739606313507053e-01 0.0000000000000000e+00  1.3925688787730095e+00 -8.1014385285810786e-01 0.0000000000000000e+00  1.4054249742105642e+00 -7.9194219113893893e-01 0.0000000000000000e+00  1.4179921165116567e+00 -7.7276996664190600e-01 0.0000000000000000e+00  1.4302549003865122e+00 -7.5260587925618527e-01 0.0000000000000000e+00  1.4421975824817839e+00 -7.3142844466764956e-01 0.0000000000000000e+00  1.4538040784575033e+00 -7.0921599916721256e-01 0.0000000000000000e+00  1.4650579601403633e+00 -6.8594670470078667e-01 0.0000000000000000e+00  1.4759424527571645e+00 -6.6159855416600788e-01 0.0000000000000000e+00  1.4864404322523486e+00 -6.3614937696094320e-01 0.0000000000000000e+00  1.4965344226936139e+00 -6.0957684479002405e-01 0.0000000000000000e+00  1.5062065937696958e+00 -5.8185847773248900e-01 0.0000000000000000e+00  1.5154387583844806e+00 -5.5297165057866271e-01 0.0000000000000000e+00  1.5242123703517021e+00 -5.2289359943942815e-01 0.0000000000000000e+00  1.5325085221945602e+00 -4.9160142863428891e-01 0.0000000000000000e+00  1.5403079430546807e+00 -4.5907211786344426e-01 0.0000000000000000e+00  1.5475909967149208e+00 -4.2528252966933811e-01 0.0000000000000000e+00  1.5543376797406276e+00 -3.9020941719317181e-01 0.0000000000000000e+00  1.5605276197440143e+00 -3.5382943223189356e-01 0.0000000000000000e+00  1.5661400737764346e+00 -3.1611913360120547e-01 0.0000000000000000e+00  1.5711539268534125e+00 -2.7705499581016180e-01 0.0000000000000000e+00  1.5755476906173682e+00 -2.3661341805294023e-01 0.0000000000000000e+00  1.5792995021430729e+00 -1.9477073352339236e-01 0.0000000000000000e+00  1.5823871228909669e+00 -1.5150321905801123e-01 0.0000000000000000e+00  1.5847879378135379e+00 -1.0678710511294520e-01 0.0000000000000000e+00  1.5864789546200766e+00 -6.0598586080723660e-02 0.0000000000000000e+00  1.5874368032051900e+00 -1.2913830952352878e-02 0.0000000000000000e+00  1.5876377352465594e+00 3.6291005669533360e-02 0.0000000000000000e+00  1.5870576239775169e+00 8.7039772200797172e-02 0.0000000000000000e+00  1.5856719641400969e+00 1.3935630834349921e-01 0.0000000000000000e+00  1.5834558721243202e+00 1.9326443298550444e-01 0.0000000000000000e+00  1.5803840862995489e+00 2.4878793172630020e-01 0.0000000000000000e+00  1.5764309675438473e+00 3.0595054402335409e-01 0.0000000000000000e+00  1.5715704999773741e+00 3.6477594995333473e-01 0.0000000000000000e+00  1.5657762919059108e+00 4.2528775658254414e-01 0.0000000000000000e+00  1.5590215769807356e+00 4.8750948394090843e-01 0.0000000000000000e+00  1.5512792155811359e+00 5.5146455059390553e-01 0.0000000000000000e+00  1.5425216964259350e+00 6.1717625880681837e-01 0.0000000000000000e+00  1.5327211384205084e+00 6.8466777929573164e-01 0.0000000000000000e+00  1.5218492927458482e+00 7.5396213555971969e-01 0.0000000000000000e+00  1.4749507186992976e+00 8.2508218778870224e-01 0.0000000000000000e+00  1.0317747299780957e+00 -1.0237143166023579e+00 0.0000000000000000e+00  1.0480218131664205e+00 -1.0234617727396234e+00 0.0000000000000000e+00  1.0642648461705357e+00 -1.0226936053646409e+00 0.0000000000000000e+00  1.0804956443576044e+00 -1.0213938278185499e+00 0.0000000000000000e+00  1.0967057693547624e+00 -1.0195462096344565e+00 0.0000000000000000e+00  1.1128865251797302e+00 -1.0171342768479708e+00 0.0000000000000000e+00  1.1290289543763645e+00 -1.0141413124383685e+00 0.0000000000000000e+00  1.1451238341572219e+00 -1.0105503569043046e+00 0.0000000000000000e+00  1.1611616725552669e+00 -1.0063442089780645e+00 0.0000000000000000e+00  1.1771327045869353e+00 -1.0015054264823995e+00 0.0000000000000000e+00  1.1930268884288002e+00 -9.9601632733404255e-01 0.0000000000000000e+00  1.2088339016101819e+00 -9.8985899069806760e-01 0.0000000000000000e+00  1.2245431372240887e+00 -9.8301525829730407e-01 0.0000000000000000e+00  1.2401437001589526e+00 -9.7546673588108179e-01 0.0000000000000000e+00  1.2556244033536899e+00 -9.6719479485763626e-01 0.0000000000000000e+00  1.2709737640786796e+00 -9.5818057409455459e-01 0.0000000000000000e+00  1.2861800002453347e+00 -9.4840498189171174e-01 0.0000000000000000e+00  1.3012310267469960e+00 -9.3784869813118543e-01 0.0000000000000000e+00  1.3161144518339625e+00 -9.2649217660870620e-01 0.0000000000000000e+00  1.3308175735255421e+00 -9.1431564755125039e-01 0.0000000000000000e+00  1.3453273760620688e+00 -9.0129912032542947e-01 0.0000000000000000e+00  1.3596305263999233e+00 -8.8742238634139536e-01 0.0000000000000000e+00  1.3737133707526572e+00 -8.7266502215702690e-01 0.0000000000000000e+00  1.3875619311813971e+00 -8.5700639278721102e-01 0.0000000000000000e+00  1.4011619022377895e+00 -8.4042565522309254e-01 0.0000000000000000e+00  1.4144986476628145e+00 -8.2290176216621203e-01 0.0000000000000000e+00  1.4275571971448824e+00 -8.0441346598249641e-01 0.0000000000000000e+00  1.4403222431407001e+00 -7.8493932288112545e-01 0.0000000000000000e+00  1.4527781377624782e+00 -7.6445769732333824e-01 0.0000000000000000e+00  1.4649088897351294e+00 -7.4294676666628834e-01 0.0000000000000000e+00  1.4766981614271875e+00 -7.2038452604711312e-01 0.0000000000000000e+00  1.4881292659592580e+00 -6.9674879351241203e-01 0.0000000000000000e+00  1.4991851643939023e+00 -6.7201721539838666e-01 0.0000000000000000e+00  1.5098484630109257e+00 -6.4616727196692592e-01 0.0000000000000000e+00  1.5201014106721369e+00 -6.1917628330296881e-01 0.0000000000000000e+00  1.5299258962797255e+00 -5.9102141547851283e-01 0.0000000000000000e+00  1.5393034463324882e+00 -5.6167968698867388e-01 0.0000000000000000e+00  1.5482152225842223e+00 -5.3112797546524360e-01 0.0000000000000000e+00  1.5566420198086925e+00 -4.9934302467322000e-01 0.0000000000000000e+00  1.5645642636756629e+00 -4.6630145179583038e-01 0.0000000000000000e+00  1.5719620087425659e+00 -4.3197975501357933e-01 0.0000000000000000e+00  1.5788149365664883e+00 -3.9635432138291038e-01 0.0000000000000000e+00  1.5851023539412175e+00 -3.5940143502007382e-01 0.0000000000000000e+00  1.5908031912641962e+00 -3.2109728559583273e-01 0.0000000000000000e+00  1.5958960010383272e+00 -2.8141797714666583e-01 0.0000000000000000e+00  1.6003589565136360e+00 -2.4033953720813739e-01 0.0000000000000000e+00  1.6041698504739199e+00 -1.9783792627613361e-01 0.0000000000000000e+00  1.6073060941735779e+00 -1.5388904760168143e-01 0.0000000000000000e+00  1.6097447164299199e+00 -1.0846875732507977e-01 0.0000000000000000e+00  1.6114623628763438e+00 -6.1552874955088210e-02 0.0000000000000000e+00  1.6124352953818453e+00 -1.3117194198928317e-02 0.0000000000000000e+00  1.6126393916424480e+00 3.6862505851135152e-02 0.0000000000000000e+00  1.6120501449501923e+00 8.8410449168867089e-02 0.0000000000000000e+00  1.6106426641454528e+00 1.4155085087700892e-01 0.0000000000000000e+00  1.6083916737584101e+00 1.9630790495633144e-01 0.0000000000000000e+00  1.6052715143456295e+00 2.5270577157501029e-01 0.0000000000000000e+00  1.6012561430277550e+00 3.1076856403257169e-01 0.0000000000000000e+00  1.5963191342344500e+00 3.7052033531263118e-01 0.0000000000000000e+00  1.5904336806627866e+00 4.3198506423869132e-01 0.0000000000000000e+00  1.5835725944553836e+00 4.9518664122725542e-01 0.0000000000000000e+00  1.5757083086046901e+00 5.6014885363254607e-01 0.0000000000000000e+00  1.5668128785898909e+00 6.2689537067712897e-01 0.0000000000000000e+00  1.5568579842530077e+00 6.9544972796277382e-01 0.0000000000000000e+00  1.5458149319208634e+00 7.6583531155590978e-01 0.0000000000000000e+00  1.4981778127970968e+00 8.3807534164206365e-01 0.0000000000000000e+00  1.0480228177528974e+00 -1.0398354713362301e+00 0.0000000000000000e+00  1.0645257552726550e+00 -1.0395789504863395e+00 0.0000000000000000e+00  1.0810245788270834e+00 -1.0387986862353904e+00 0.0000000000000000e+00  1.0975109748941314e+00 -1.0374784401712760e+00 0.0000000000000000e+00  1.1139763722158982e+00 -1.0356017262344399e+00 0.0000000000000000e+00  1.1304119378683100e+00 -1.0331518110333020e+00 0.0000000000000000e+00  1.1468085733358142e+00 -1.0301117142923670e+00 0.0000000000000000e+00  1.1631569105931980e+00 -1.0264642094370049e+00 0.0000000000000000e+00  1.1794473081966959e+00 -1.0221918243189498e+00 0.0000000000000000e+00  1.1956698473866276e+00 -1.0172768420866287e+00 0.0000000000000000e+00  1.2118143282038574e+00 -1.0117013022044801e+00 0.0000000000000000e+00  1.2278702656224454e+00 -1.0054470016254917e+00 0.0000000000000000e+00  1.2438268857009194e+00 -9.9849549612123545e-01 0.0000000000000000e+00  1.2596731217546697e+00 -9.9082810177374259e-01 0.0000000000000000e+00  1.2753976105520348e+00 -9.8242589663361346e-01 0.0000000000000000e+00  1.2909886885367139e+00 -9.7326972254881905e-01 0.0000000000000000e+00  1.3064343880792220e+00 -9.6334018716870362e-01 0.0000000000000000e+00  1.3217224337601614e+00 -9.5261766612775778e-01 0.0000000000000000e+00  1.3368402386881695e+00 -9.4108230541378446e-01 0.0000000000000000e+00  1.3517749008554627e+00 -9.2871402392513458e-01 0.0000000000000000e+00  1.3665131995339848e+00 -9.1549251622175043e-01 0.0000000000000000e+00  1.3810415917152317e+00 -9.0139725547480098e-01 0.0000000000000000e+00  1.3953462085969042e+00 -8.8640749661974971e-01 0.0000000000000000e+00  1.4094128521196208e+00 -8.7050227971775074e-01 0.0000000000000000e+00  1.4232269915569964e+00 -8.5366043353032028e-01 0.0000000000000000e+00  1.4367737601624695e+00 -8.3586057931227564e-01 0.0000000000000000e+00  1.4500379518763460e+00 -8.1708113482799460e-01 0.0000000000000000e+00  1.4630040180966015e+00 -7.9730031859608808e-01 0.0000000000000000e+00  1.4756560645170698e+00 -7.7649615436763497e-01 0.0000000000000000e+00  1.4879778480367238e+00 -7.5464647584316957e-01 0.0000000000000000e+00  1.4999527737438374e+00 -7.3172893163366071e-01 0.0000000000000000e+00  1.5115638919789032e+00 -7.0772099047077053e-01 0.0000000000000000e+00  1.5227938954802602e+00 -6.8259994667171653e-01 0.0000000000000000e+00  1.5336251166164772e+00 -6.5634292586411480e-01 0.0000000000000000e+00  1.5440395247096115e+00 -6.2892689097621113e-01 0.0000000000000000e+00  1.5540187234535630e+00 -6.0032864849795897e-01 0.0000000000000000e+00  1.5635439484318132e+00 -5.7052485501843253e-01 0.0000000000000000e+00  1.5725960647389492e+00 -5.3949202404510643e-01 0.0000000000000000e+00  1.5811555647104298e+00 -5.0720653311056818e-01 0.0000000000000000e+00  1.5892025657651700e+00 -4.7364463117225974e-01 0.0000000000000000e+00  1.5967168083655849e+00 -4.3878244631088115e-01 0.0000000000000000e+00  1.6036776540998441e+00 -4.0259599373312205e-01 0.0000000000000000e+00  1.6100640838911533e+00 -3.6506118408440669e-01 0.0000000000000000e+00  1.6158546963389944e+00 -3.2615383207737159e-01 0.0000000000000000e+00  1.6210277061973359e+00 -2.8584966544182611e-01 0.0000000000000000e+00  1.6255609429949054e+00 -2.4412433420195012e-01 0.0000000000000000e+00  1.6294318498027305e+00 -2.0095342028652441e-01 0.0000000000000000e+00  1.6326174821542276e+00 -1.5631244747799555e-01 0.0000000000000000e+00  1.6350945071232157e+00 -1.1017689170619516e-01 0.0000000000000000e+00  1.6368392025653322e+00 -6.2522191692553575e-02 0.0000000000000000e+00  1.6378274565284052e+00 -1.3323759950647940e-02 0.0000000000000000e+00  1.6380347668374435e+00 3.7443005851053535e-02 0.0000000000000000e+00  1.6374362408599927e+00 8.9802711158396109e-02 0.0000000000000000e+00  1.6360065954576986e+00 1.4377995242681751e-01 0.0000000000000000e+00  1.6337201571300093e+00 1.9939930463684630e-01 0.0000000000000000e+00  1.6305508623560521e+00 2.5668530842394710e-01 0.0000000000000000e+00  1.6264722581407967e+00 3.1566245681685934e-01 0.0000000000000000e+00  1.6214575027717246e+00 3.7635518157857573e-01 0.0000000000000000e+00  1.6154793667923140e+00 4.3878783914412312e-01 0.0000000000000000e+00  1.6085102341987290e+00 5.0298469614932206e-01 0.0000000000000000e+00  1.6005221038662163e+00 5.6896991454471735e-01 0.0000000000000000e+00  1.5914865912117906e+00 6.3676753628889471e-01 0.0000000000000000e+00  1.5813749300998792e+00 7.0640146761542155e-01 0.0000000000000000e+00  1.5701579749977008e+00 7.7789546286768596e-01 0.0000000000000000e+00  1.5217706804040636e+00 8.5127310789593014e-01 0.0000000000000000e+00  1.0645267756790671e+00 -1.0562104973169320e+00 0.0000000000000000e+00  1.0812895966497105e+00 -1.0559499368514511e+00 0.0000000000000000e+00  1.0980482388694970e+00 -1.0551573852264573e+00 0.0000000000000000e+00  1.1147942578974535e+00 -1.0538163483120626e+00 0.0000000000000000e+00  1.1315189474980076e+00 -1.0519100804310486e+00 0.0000000000000000e+00  1.1482133356487709e+00 -1.0494215846792612e+00 0.0000000000000000e+00  1.1648681805534196e+00 -1.0463336133807746e+00 0.0000000000000000e+00  1.1814739666618095e+00 -1.0426286686818818e+00 0.0000000000000000e+00  1.1980209006995284e+00 -1.0382890032880174e+00 0.0000000000000000e+00  1.2144989077091592e+00 -1.0332966213477928e+00 0.0000000000000000e+00  1.2308976271055820e+00 -1.0276332794883667e+00 0.0000000000000000e+00  1.2472064087477239e+00 -1.0212804880064468e+00 0.0000000000000000e+00  1.2634143090292225e+00 -1.0142195122192710e+00 0.0000000000000000e+00  1.2795100869905431e+00 -1.0064313739799746e+00 0.0000000000000000e+00  1.2954822004551636e+00 -9.9789685336181311e-01 0.0000000000000000e+00  1.3113188021924977e+00 -9.8859649051576226e-01 0.0000000000000000e+00  1.3270077361103185e+00 -9.7851058770607957e-01 0.0000000000000000e+00  1.3425365334795014e+00 -9.6761921152846631e-01 0.0000000000000000e+00  1.3578924091939863e+00 -9.5590219531552711e-01 0.0000000000000000e+00  1.3730622580689305e+00 -9.4333914173427580e-01 0.0000000000000000e+00  1.3880326511801055e+00 -9.2990942558050227e-01 0.0000000000000000e+00  1.4027898322476560e+00 -9.1559219677485659e-01 0.0000000000000000e+00  1.4173197140674247e+00 -9.0036638356557086e-01 0.0000000000000000e+00  1.4316078749931300e+00 -8.8421069594279156e-01 0.0000000000000000e+00  1.4456395554727415e+00 -8.6710362926953954e-01 0.0000000000000000e+00  1.4593996546425050e+00 -8.4902346813438379e-01 0.0000000000000000e+00  1.4728727269821293e+00 -8.2994829043094431e-01 0.0000000000000000e+00  1.4860429790347369e+00 -8.0985597166941081e-01 0.0000000000000000e+00  1.4988942661952602e+00 -7.8872418952529866e-01 0.0000000000000000e+00  1.5114100895710501e+00 -7.6653042863071730e-01 0.0000000000000000e+00  1.5235735929185461e+00 -7.4325198561347439e-01 0.0000000000000000e+00  1.5353675596599432e+00 -7.1886597438938460e-01 0.0000000000000000e+00  1.5467744099838674e+00 -6.9334933171319002e-01 0.0000000000000000e+00  1.5577761980341753e+00 -6.6667882299355563e-01 0.0000000000000000e+00  1.5683546091910634e+00 -6.3883104837763482e-01 0.0000000000000000e+00  1.5784909574487629e+00 -6.0978244911074375e-01 0.0000000000000000e+00  1.5881661828941933e+00 -5.7950931417672391e-01 0.0000000000000000e+00  1.5973608492910272e+00 -5.4798778722461017e-01 0.0000000000000000e+00  1.6060551417737066e+00 -5.1519387378725678e-01 0.0000000000000000e+00  1.6142288646560532e+00 -4.8110344879760869e-01 0.0000000000000000e+00  1.6218614393591892e+00 -4.4569226440833787e-01 0.0000000000000000e+00  1.6289319024635882e+00 -4.0893595812059846e-01 0.0000000000000000e+00  1.6354189038901603e+00 -3.7081006122767834e-01 0.0000000000000000e+00  1.6413007052153687e+00 -3.3129000757935700e-01 0.0000000000000000e+00  1.6465551781254750e+00 -2.9035114267280537e-01 0.0000000000000000e+00  1.6511598030150874e+00 -2.4796873307588108e-01 0.0000000000000000e+00  1.6550916677352880e+00 -2.0411797618869443e-01 0.0000000000000000e+00  1.6583274664967211e+00 -1.5877401034935068e-01 0.0000000000000000e+00  1.6608434989330825e+00 -1.1191192528977112e-01 0.0000000000000000e+00  1.6626156693305942e+00 -6.3506772947528711e-02 0.0000000000000000e+00  1.6636194860290869e+00 -1.3533578639629562e-02 0.0000000000000000e+00  1.6638300610004593e+00 3.8032647395805697e-02 0.0000000000000000e+00  1.6632221096103339e+00 9.1216898084013120e-02 0.0000000000000000e+00  1.6617699505688621e+00 1.4604415721824249e-01 0.0000000000000000e+00  1.6594475060766871e+00 2.0253938677865513e-01 0.0000000000000000e+00  1.6562283021722046e+00 2.6072751385949089e-01 0.0000000000000000e+00  1.6520854692863265e+00 3.2063341719856875e-01 0.0000000000000000e+00  1.6469917430110690e+00 3.8228191330316452e-01 0.0000000000000000e+00  1.6409194650883632e+00 4.4569774216634617e-01 0.0000000000000000e+00  1.6338405846255919e+00 5.1090555256784431e-01 0.0000000000000000e+00  1.6257266595444506e+00 5.7792988695355896e-01 0.0000000000000000e+00  1.6165488582698113e+00 6.4679516588783437e-01 0.0000000000000000e+00  1.6062779616653828e+00 7.1752567207263640e-01 0.0000000000000000e+00  1.5948843652230251e+00 7.9014553392783116e-01 0.0000000000000000e+00  1.5457350816148294e+00 8.6467870872675756e-01 0.0000000000000000e+00  1.0812906331251853e+00 -1.0728433924348775e+00 0.0000000000000000e+00  1.0983174301155649e+00 -1.0725787287391169e+00 0.0000000000000000e+00  1.1153399825493373e+00 -1.0717736962420930e+00 0.0000000000000000e+00  1.1323497130049331e+00 -1.0704115410691661e+00 0.0000000000000000e+00  1.1493377781435195e+00 -1.0684752538370739e+00 0.0000000000000000e+00  1.1662950646539139e+00 -1.0659475699793679e+00 0.0000000000000000e+00  1.1832121852026778e+00 -1.0628109702087492e+00 0.0000000000000000e+00  1.2000794743915553e+00 -1.0590476811204081e+00 0.0000000000000000e+00  1.2168869847245034e+00 -1.0546396759405574e+00 0.0000000000000000e+00  1.2336244825866116e+00 -1.0495686754243851e+00 0.0000000000000000e+00  1.2502814442372836e+00 -1.0438161489077296e+00 0.0000000000000000e+00  1.2668470518201300e+00 -1.0373633155168405e+00 0.0000000000000000e+00  1.2833101893920633e+00 -1.0301911455406305e+00 0.0000000000000000e+00  1.2996594389741949e+00 -1.0222803619699088e+00 0.0000000000000000e+00  1.3158830766271701e+00 -1.0136114422081257e+00 0.0000000000000000e+00  1.3319690685536667e+00 -1.0041646199582246e+00 0.0000000000000000e+00  1.3479050672308612e+00 -9.9391988729026126e-01 0.0000000000000000e+00  1.3636784075757160e+00 -9.8285699689449535e-01 0.0000000000000000e+00  1.3792761031460457e+00 -9.7095546452472914e-01 0.0000000000000000e+00  1.3946848423803768e+00 -9.5819457163672139e-01 0.0000000000000000e+00  1.4098909848796950e+00 -9.4455336822655644e-01 0.0000000000000000e+00  1.4248805577342576e+00 -9.3001067587391040e-01 0.0000000000000000e+00  1.4396392518987233e+00 -9.1454509099520975e-01 0.0000000000000000e+00  1.4541524186189263e+00 -8.9813498831172900e-01 0.0000000000000000e+00  1.4684050659137120e+00 -8.8075852453773384e-01 0.0000000000000000e+00  1.4823818551153249e+00 -8.6239364229382154e-01 0.0000000000000000e+00  1.4960670974719210e+00 -8.4301807425066888e-01 0.0000000000000000e+00  1.5094447508158666e+00 -8.2260934750844805e-01 0.0000000000000000e+00  1.5224984163015571e+00 -8.0114478821721280e-01 0.0000000000000000e+00  1.5352113352165915e+00 -7.7860152644362102e-01 0.0000000000000000e+00  1.5475663858701973e+00 -7.5495650128939096e-01 0.0000000000000000e+00  1.5595460805629191e+00 -7.3018646626695272e-01 0.0000000000000000e+00  1.5711325626416359e+00 -7.0426799493778258e-01 0.0000000000000000e+00  1.5823076036440928e+00 -6.7717748681897272e-01 0.0000000000000000e+00  1.5930526005371897e+00 -6.4889117356361281e-01 0.0000000000000000e+00  1.6033485730533845e+00 -6.1938512542061519e-01 0.0000000000000000e+00  1.6131761611296402e+00 -5.8863525797964900e-01 0.0000000000000000e+00  1.6225156224534432e+00 -5.5661733920688605e-01 0.0000000000000000e+00  1.6313468301205067e+00 -5.2330699677730408e-01 0.0000000000000000e+00  1.6396492704088734e+00 -4.8867972570932294e-01 0.0000000000000000e+00  1.6474020406742005e+00 -4.5271089630758077e-01 0.0000000000000000e+00  1.6545838473711405e+00 -4.1537576241969876e-01 0.0000000000000000e+00  1.6611730042057795e+00 -3.7664947001290283e-01 0.0000000000000000e+00  1.6671474304242218e+00 -3.3650706607639735e-01 0.0000000000000000e+00  1.6724846492424938e+00 -2.9492350785542820e-01 0.0000000000000000e+00  1.6771617864230182e+00 -2.5187367242296976e-01 0.0000000000000000e+00  1.6811555690030353e+00 -2.0733236659501819e-01 0.0000000000000000e+00  1.6844423241804081e+00 -1.6127433719547146e-01 0.0000000000000000e+00  1.6869979783623721e+00 -1.1367428167660920e-01 0.0000000000000000e+00  1.6887980563828697e+00 -6.4506859101187253e-02 0.0000000000000000e+00  1.6898176808942049e+00 -1.3746701492181268e-02 0.0000000000000000e+00  1.6900315719388621e+00 3.8631574443775074e-02 0.0000000000000000e+00  1.6894140467074101e+00 9.2653355213221378e-02 0.0000000000000000e+00  1.6879390194885318e+00 1.4834401804690356e-01 0.0000000000000000e+00  1.6855800018172851e+00 2.0572891801897164e-01 0.0000000000000000e+00  1.6823101028278336e+00 2.6483337476828139e-01 0.0000000000000000e+00  1.6781020298169460e+00 3.2568265881576486e-01 0.0000000000000000e+00  1.6729280890246854e+00 3.8830197747182305e-01 0.0000000000000000e+00  1.6667601866387949e+00 4.5271646032772561e-01 0.0000000000000000e+00  1.6595698300293757e+00 5.1895114432500256e-01 0.0000000000000000e+00  1.6513281292205626e+00 5.8703095839684005e-01 0.0000000000000000e+00  1.6420057986059844e+00 6.5698070767551298e-01 0.0000000000000000e+00  1.6315731589149045e+00 7.2882505725990199e-01 0.0000000000000000e+00  1.6200001394360191e+00 8.0258851553719768e-01 0.0000000000000000e+00  1.5700768672323169e+00 8.7829541705289804e-01 0.0000000000000000e+00  1.0983184829131536e+00 -1.0897382175380932e+00 0.0000000000000000e+00  1.1156134129407025e+00 -1.0894693859955784e+00 0.0000000000000000e+00  1.1329040315696035e+00 -1.0886516760813885e+00 0.0000000000000000e+00  1.1501816263035520e+00 -1.0872680700857487e+00 0.0000000000000000e+00  1.1674372145413923e+00 -1.0853012907665849e+00 0.0000000000000000e+00  1.1846615394581737e+00 -1.0827338016800889e+00 0.0000000000000000e+00  1.2018450658914650e+00 -1.0795478076503291e+00 0.0000000000000000e+00  1.2189779762351365e+00 -1.0757252553820975e+00 0.0000000000000000e+00  1.2360501663428758e+00 -1.0712478342212264e+00 0.0000000000000000e+00  1.2530512414437862e+00 -1.0660969770666819e+00 0.0000000000000000e+00  1.2699705120724729e+00 -1.0602538614388051e+00 0.0000000000000000e+00  1.2867969900160954e+00 -1.0536994107081179e+00 0.0000000000000000e+00  1.3035193842809343e+00 -1.0464142954891884e+00 0.0000000000000000e+00  1.3201260970810962e+00 -1.0383789352041026e+00 0.0000000000000000e+00  1.3366052198520462e+00 -1.0295734998201496e+00 0.0000000000000000e+00  1.3529445292917293e+00 -1.0199779117663867e+00 0.0000000000000000e+00  1.3691314834321300e+00 -1.0095718480338198e+00 0.0000000000000000e+00  1.3851532177441739e+00 -9.9833474246397480e-01 0.0000000000000000e+00  1.4009965412789693e+00 -9.8624578823071485e-01 0.0000000000000000e+00  1.4166479328484507e+00 -9.7328394052020073e-01 0.0000000000000000e+00  1.4320935372485755e+00 -9.5942791941396055e-01 0.0000000000000000e+00  1.4473191615282910e+00 -9.4465621298007951e-01 0.0000000000000000e+00  1.4623102713075788e+00 -9.2894708057758635e-01 0.0000000000000000e+00  1.4770519871479615e+00 -9.1227855637916877e-01 0.0000000000000000e+00  1.4915290809789343e+00 -8.9462845311739347e-01 0.0000000000000000e+00  1.5057259725838716e+00 -8.7597436605967494e-01 0.0000000000000000e+00  1.5196267261490379e+00 -8.5629367721727756e-01 0.0000000000000000e+00  1.5332150468794170e+00 -8.3556355979369479e-01 0.0000000000000000e+00  1.5464742776851648e+00 -8.1376098287779963e-01 0.0000000000000000e+00  1.5593873959425590e+00 -7.9086271638720385e-01 0.0000000000000000e+00  1.5719370103334316e+00 -7.6684533626732010e-01 0.0000000000000000e+00  1.5841053577671316e+00 -7.4168522995166641e-01 0.0000000000000000e+00  1.5958743003891693e+00 -7.1535860208899227e-01 0.0000000000000000e+00  1.6072253226807769e+00 -6.8784148054286209e-01 0.0000000000000000e+00  1.6181395286537112e+00 -6.5910972266936496e-01 0.0000000000000000e+00  1.6285976391447079e+00 -6.2913902187866699e-01 0.0000000000000000e+00  1.6385799892140984e+00 -5.9790491448616123e-01 0.0000000000000000e+00  1.6480665256531850e+00 -5.6538278685901244e-01 0.0000000000000000e+00  1.6570368046050583e+00 -5.3154788286392685e-01 0.0000000000000000e+00  1.6654699893036440e+00 -4.9637531162201487e-01 0.0000000000000000e+00  1.6733448479358490e+00 -4.5984005557664953e-01 0.0000000000000000e+00  1.6806397516317786e+00 -4.2191697888025659e-01 0.0000000000000000e+00  1.6873326725880815e+00 -3.8258083610599569e-01 0.0000000000000000e+00  1.6934011823295847e+00 -3.4180628129032931e-01 0.0000000000000000e+00  1.6988224501144698e+00 -2.9956787731249856e-01 0.0000000000000000e+00  1.7035732414883333e+00 -2.5584010561694503e-01 0.0000000000000000e+00  1.7076299169925786e+00 -2.1059737628474418e-01 0.0000000000000000e+00  1.7109684310326809e+00 -1.6381403846013676e-01 0.0000000000000000e+00  1.7135