<?xml version="1.0"?>
<VTKFile type="UnstructuredGrid"  version="0.1"  >
<UnstructuredGrid>
<Piece  NumberOfPoints="4225" NumberOfCells="8192">
<Points>
<DataArray  type="Float64"  NumberOfComponents="3"  format="ascii">0 0 0  0.015625 0 0  0.03125 0 0  0.046875 0 0  0.0625 0 0  0.078125 0 0  0.09375 0 0  0.109375 0 0  0.125 0 0  0.140625 0 0  0.15625 0 0  0.171875 0 0  0.1875 0 0  0.203125 0 0  0.21875 0 0  0.234375 0 0  0.25 0 0  0.265625 0 0  0.28125 0 0  0.296875 0 0  0.3125 0 0  0.328125 0 0  0.34375 0 0  0.359375 0 0  0.375 0 0  0.390625 0 0  0.40625 0 0  0.421875 0 0  0.4375 0 0  0.453125 0 0  0.46875 0 0  0.484375 0 0  0.5 0 0  0.515625 0 0  0.53125 0 0  0.546875 0 0  0.5625 0 0  0.578125 0 0  0.59375 0 0  0.609375 0 0  0.625 0 0  0.640625 0 0  0.65625 0 0  0.671875 0 0  0.6875 0 0  0.703125 0 0  0.71875 0 0  0.734375 0 0  0.75 0 0  0.765625 0 0  0.78125 0 0  0.796875 0 0  0.8125 0 0  0.828125 0 0  0.84375 0 0  0.859375 0 0  0.875 0 0  0.890625 0 0  0.90625 0 0  0.921875 0 0  0.9375 0 0  0.953125 0 0  0.96875 0 0  0.984375 0 0  1 0 0  0 0.015625 0  0.015625 0.015625 0  0.03125 0.015625 0  0.046875 0.015625 0  0.0625 0.015625 0  0.078125 0.015625 0  0.09375 0.015625 0  0.109375 0.015625 0  0.125 0.015625 0  0.140625 0.015625 0  0.15625 0.015625 0  0.171875 0.015625 0  0.1875 0.015625 0  0.203125 0.015625 0  0.21875 0.015625 0  0.234375 0.015625 0  0.25 0.015625 0  0.265625 0.015625 0  0.28125 0.015625 0  0.296875 0.015625 0  0.3125 0.015625 0  0.328125 0.015625 0  0.34375 0.015625 0  0.359375 0.015625 0  0.375 0.015625 0  0.390625 0.015625 0  0.40625 0.015625 0  0.421875 0.015625 0  0.4375 0.015625 0  0.453125 0.015625 0  0.46875 0.015625 0  0.484375 0.015625 0  0.5 0.015625 0  0.515625 0.015625 0  0.53125 0.015625 0  0.546875 0.015625 0  0.5625 0.015625 0  0.578125 0.015625 0  0.59375 0.015625 0  0.609375 0.015625 0  0.625 0.015625 0  0.640625 0.015625 0  0.65625 0.015625 0  0.671875 0.015625 0  0.6875 0.015625 0  0.703125 0.015625 0  0.71875 0.015625 0  0.734375 0.015625 0  0.75 0.015625 0  0.765625 0.015625 0  0.78125 0.015625 0  0.796875 0.015625 0  0.8125 0.015625 0  0.828125 0.015625 0  0.84375 0.015625 0  0.859375 0.015625 0  0.875 0.015625 0  0.890625 0.015625 0  0.90625 0.015625 0  0.921875 0.015625 0  0.9375 0.015625 0  0.953125 0.015625 0  0.96875 0.015625 0  0.984375 0.015625 0  1 0.015625 0  0 0.03125 0  0.015625 0.03125 0  0.03125 0.03125 0  0.046875 0.03125 0  0.0625 0.03125 0  0.078125 0.03125 0  0.09375 0.03125 0  0.109375 0.03125 0  0.125 0.03125 0  0.140625 0.03125 0  0.15625 0.03125 0  0.171875 0.03125 0  0.1875 0.03125 0  0.203125 0.03125 0  0.21875 0.03125 0  0.234375 0.03125 0  0.25 0.03125 0  0.265625 0.03125 0  0.28125 0.03125 0  0.296875 0.03125 0  0.3125 0.03125 0  0.328125 0.03125 0  0.34375 0.03125 0  0.359375 0.03125 0  0.375 0.03125 0  0.390625 0.03125 0  0.40625 0.03125 0  0.421875 0.03125 0  0.4375 0.03125 0  0.453125 0.03125 0  0.46875 0.03125 0  0.484375 0.03125 0  0.5 0.03125 0  0.515625 0.03125 0  0.53125 0.03125 0  0.546875 0.03125 0  0.5625 0.03125 0  0.578125 0.03125 0  0.59375 0.03125 0  0.609375 0.03125 0  0.625 0.03125 0  0.640625 0.03125 0  0.65625 0.03125 0  0.671875 0.03125 0  0.6875 0.03125 0  0.703125 0.03125 0  0.71875 0.03125 0  0.734375 0.03125 0  0.75 0.03125 0  0.765625 0.03125 0  0.78125 0.03125 0  0.796875 0.03125 0  0.8125 0.03125 0  0.828125 0.03125 0  0.84375 0.03125 0  0.859375 0.03125 0  0.875 0.03125 0  0.890625 0.03125 0  0.90625 0.03125 0  0.921875 0.03125 0  0.9375 0.03125 0  0.953125 0.03125 0  0.96875 0.03125 0  0.984375 0.03125 0  1 0.03125 0  0 0.046875 0  0.015625 0.046875 0  0.03125 0.046875 0  0.046875 0.046875 0  0.0625 0.046875 0  0.078125 0.046875 0  0.09375 0.046875 0  0.109375 0.046875 0  0.125 0.046875 0  0.140625 0.046875 0  0.15625 0.046875 0  0.171875 0.046875 0  0.1875 0.046875 0  0.203125 0.046875 0  0.21875 0.046875 0  0.234375 0.046875 0  0.25 0.046875 0  0.265625 0.046875 0  0.28125 0.046875 0  0.296875 0.046875 0  0.3125 0.046875 0  0.328125 0.046875 0  0.34375 0.046875 0  0.359375 0.046875 0  0.375 0.046875 0  0.390625 0.046875 0  0.40625 0.046875 0  0.421875 0.046875 0  0.4375 0.046875 0  0.453125 0.046875 0  0.46875 0.046875 0  0.484375 0.046875 0  0.5 0.046875 0  0.515625 0.046875 0  0.53125 0.046875 0  0.546875 0.046875 0  0.5625 0.046875 0  0.578125 0.046875 0  0.59375 0.046875 0  0.609375 0.046875 0  0.625 0.046875 0  0.640625 0.046875 0  0.65625 0.046875 0  0.671875 0.046875 0  0.6875 0.046875 0  0.703125 0.046875 0  0.71875 0.046875 0  0.734375 0.046875 0  0.75 0.046875 0  0.765625 0.046875 0  0.78125 0.046875 0  0.796875 0.046875 0  0.8125 0.046875 0  0.828125 0.046875 0  0.84375 0.046875 0  0.859375 0.046875 0  0.875 0.046875 0  0.890625 0.046875 0  0.90625 0.046875 0  0.921875 0.046875 0  0.9375 0.046875 0  0.953125 0.046875 0  0.96875 0.046875 0  0.984375 0.046875 0  1 0.046875 0  0 0.0625 0  0.015625 0.0625 0  0.03125 0.0625 0  0.046875 0.0625 0  0.0625 0.0625 0  0.078125 0.0625 0  0.09375 0.0625 0  0.109375 0.0625 0  0.125 0.0625 0  0.140625 0.0625 0  0.15625 0.0625 0  0.171875 0.0625 0  0.1875 0.0625 0  0.203125 0.0625 0  0.21875 0.0625 0  0.234375 0.0625 0  0.25 0.0625 0  0.265625 0.0625 0  0.28125 0.0625 0  0.296875 0.0625 0  0.3125 0.0625 0  0.328125 0.0625 0  0.34375 0.0625 0  0.359375 0.0625 0  0.375 0.0625 0  0.390625 0.0625 0  0.40625 0.0625 0  0.421875 0.0625 0  0.4375 0.0625 0  0.453125 0.0625 0  0.46875 0.0625 0  0.484375 0.0625 0  0.5 0.0625 0  0.515625 0.0625 0  0.53125 0.0625 0  0.546875 0.0625 0  0.5625 0.0625 0  0.578125 0.0625 0  0.59375 0.0625 0  0.609375 0.0625 0  0.625 0.0625 0  0.640625 0.0625 0  0.65625 0.0625 0  0.671875 0.0625 0  0.6875 0.0625 0  0.703125 0.0625 0  0.71875 0.0625 0  0.734375 0.0625 0  0.75 0.0625 0  0.765625 0.0625 0  0.78125 0.0625 0  0.796875 0.0625 0  0.8125 0.0625 0  0.828125 0.0625 0  0.84375 0.0625 0  0.859375 0.0625 0  0.875 0.0625 0  0.890625 0.0625 0  0.90625 0.0625 0  0.921875 0.0625 0  0.9375 0.0625 0  0.953125 0.0625 0  0.96875 0.0625 0  0.984375 0.0625 0  1 0.0625 0  0 0.078125 0  0.015625 0.078125 0  0.03125 0.078125 0  0.046875 0.078125 0  0.0625 0.078125 0  0.078125 0.078125 0  0.09375 0.078125 0  0.109375 0.078125 0  0.125 0.078125 0  0.140625 0.078125 0  0.15625 0.078125 0  0.171875 0.078125 0  0.1875 0.078125 0  0.203125 0.078125 0  0.21875 0.078125 0  0.234375 0.078125 0  0.25 0.078125 0  0.265625 0.078125 0  0.28125 0.078125 0  0.296875 0.078125 0  0.3125 0.078125 0  0.328125 0.078125 0  0.34375 0.078125 0  0.359375 0.078125 0  0.375 0.078125 0  0.390625 0.078125 0  0.40625 0.078125 0  0.421875 0.078125 0  0.4375 0.078125 0  0.453125 0.078125 0  0.46875 0.078125 0  0.484375 0.078125 0  0.5 0.078125 0  0.515625 0.078125 0  0.53125 0.078125 0  0.546875 0.078125 0  0.5625 0.078125 0  0.578125 0.078125 0  0.59375 0.078125 0  0.609375 0.078125 0  0.625 0.078125 0  0.640625 0.078125 0  0.65625 0.078125 0  0.671875 0.078125 0  0.6875 0.078125 0  0.703125 0.078125 0  0.71875 0.078125 0  0.734375 0.078125 0  0.75 0.078125 0  0.765625 0.078125 0  0.78125 0.078125 0  0.796875 0.078125 0  0.8125 0.078125 0  0.828125 0.078125 0  0.84375 0.078125 0  0.859375 0.078125 0  0.875 0.078125 0  0.890625 0.078125 0  0.90625 0.078125 0  0.921875 0.078125 0  0.9375 0.078125 0  0.953125 0.078125 0  0.96875 0.078125 0  0.984375 0.078125 0  1 0.078125 0  0 0.09375 0  0.015625 0.09375 0  0.03125 0.09375 0  0.046875 0.09375 0  0.0625 0.09375 0  0.078125 0.09375 0  0.09375 0.09375 0  0.109375 0.09375 0  0.125 0.09375 0  0.140625 0.09375 0  0.15625 0.09375 0  0.171875 0.09375 0  0.1875 0.09375 0  0.203125 0.09375 0  0.21875 0.09375 0  0.234375 0.09375 0  0.25 0.09375 0  0.265625 0.09375 0  0.28125 0.09375 0  0.296875 0.09375 0  0.3125 0.09375 0  0.328125 0.09375 0  0.34375 0.09375 0  0.359375 0.09375 0  0.375 0.09375 0  0.390625 0.09375 0  0.40625 0.09375 0  0.421875 0.09375 0  0.4375 0.09375 0  0.453125 0.09375 0  0.46875 0.09375 0  0.484375 0.09375 0  0.5 0.09375 0  0.515625 0.09375 0  0.53125 0.09375 0  0.546875 0.09375 0  0.5625 0.09375 0  0.578125 0.09375 0  0.59375 0.09375 0  0.609375 0.09375 0  0.625 0.09375 0  0.640625 0.09375 0  0.65625 0.09375 0  0.671875 0.09375 0  0.6875 0.09375 0  0.703125 0.09375 0  0.71875 0.09375 0  0.734375 0.09375 0  0.75 0.09375 0  0.765625 0.09375 0  0.78125 0.09375 0  0.796875 0.09375 0  0.8125 0.09375 0  0.828125 0.09375 0  0.84375 0.09375 0  0.859375 0.09375 0  0.875 0.09375 0  0.890625 0.09375 0  0.90625 0.09375 0  0.921875 0.09375 0  0.9375 0.09375 0  0.953125 0.09375 0  0.96875 0.09375 0  0.984375 0.09375 0  1 0.09375 0  0 0.109375 0  0.015625 0.109375 0  0.03125 0.109375 0  0.046875 0.109375 0  0.0625 0.109375 0  0.078125 0.109375 0  0.09375 0.109375 0  0.109375 0.109375 0  0.125 0.109375 0  0.140625 0.109375 0  0.15625 0.109375 0  0.171875 0.109375 0  0.1875 0.109375 0  0.203125 0.109375 0  0.21875 0.109375 0  0.234375 0.109375 0  0.25 0.109375 0  0.265625 0.109375 0  0.28125 0.109375 0  0.296875 0.109375 0  0.3125 0.109375 0  0.328125 0.109375 0  0.34375 0.109375 0  0.359375 0.109375 0  0.375 0.109375 0  0.390625 0.109375 0  0.40625 0.109375 0  0.421875 0.109375 0  0.4375 0.109375 0  0.453125 0.109375 0  0.46875 0.109375 0  0.484375 0.109375 0  0.5 0.109375 0  0.515625 0.109375 0  0.53125 0.109375 0  0.546875 0.109375 0  0.5625 0.109375 0  0.578125 0.109375 0  0.59375 0.109375 0  0.609375 0.109375 0  0.625 0.109375 0  0.640625 0.109375 0  0.65625 0.109375 0  0.671875 0.109375 0  0.6875 0.109375 0  0.703125 0.109375 0  0.71875 0.109375 0  0.734375 0.109375 0  0.75 0.109375 0  0.765625 0.109375 0  0.78125 0.109375 0  0.796875 0.109375 0  0.8125 0.109375 0  0.828125 0.109375 0  0.84375 0.109375 0  0.859375 0.109375 0  0.875 0.109375 0  0.890625 0.109375 0  0.90625 0.109375 0  0.921875 0.109375 0  0.9375 0.109375 0  0.953125 0.109375 0  0.96875 0.109375 0  0.984375 0.109375 0  1 0.109375 0  0 0.125 0  0.015625 0.125 0  0.03125 0.125 0  0.046875 0.125 0  0.0625 0.125 0  0.078125 0.125 0  0.09375 0.125 0  0.109375 0.125 0  0.125 0.12
[...]
<PointData  Vectors="f_1151"> 
<DataArray  type="Float64"  Name="f_1151"  NumberOfComponents="3" format="ascii">7.8334269895123723e-03 -7.8126107082084235e-03 0.0000000000000000e+00  2.3456693723814863e-02 -7.8772952546597910e-03 0.0000000000000000e+00  3.9062910750751925e-02 -7.9357854411896949e-03 0.0000000000000000e+00  5.4640693951015264e-02 -7.9878869017103241e-03 0.0000000000000000e+00  7.0178640880866144e-02 -8.0333526626467817e-03 0.0000000000000000e+00  8.5665353917474416e-02 -8.0719132782679590e-03 0.0000000000000000e+00  1.0108945094782673e-01 -8.1032884715703142e-03 0.0000000000000000e+00  1.1643957223611515e-01 -8.1271927769074569e-03 0.0000000000000000e+00  1.3170438598371317e-01 -8.1433389875505708e-03 0.0000000000000000e+00  1.4687259337896855e-01 -8.1514406914844992e-03 0.0000000000000000e+00  1.6193293342100773e-01 -8.1512143853539575e-03 0.0000000000000000e+00  1.7687418762111934e-01 -8.1423814003604017e-03 0.0000000000000000e+00  1.9168518463913733e-01 -8.1246697489230999e-03 0.0000000000000000e+00  2.0635480487581567e-01 -8.0978159401066986e-03 0.0000000000000000e+00  2.2087198502781941e-01 -8.0615667921209062e-03 0.0000000000000000e+00  2.3522572261444202e-01 -8.0156812616816210e-03 0.0000000000000000e+00  2.4940508046951465e-01 -7.9599323048414727e-03 0.0000000000000000e+00  2.6339919121521171e-01 -7.8941087747494108e-03 0.0000000000000000e+00  2.7719726169676717e-01 -7.8180173628959616e-03 0.0000000000000000e+00  2.9078857740511760e-01 -7.7314845875160552e-03 0.0000000000000000e+00  3.0416250685303370e-01 -7.6343588336931587e-03 0.0000000000000000e+00  3.1730850594975174e-01 -7.5265124401575519e-03 0.0000000000000000e+00  3.3021612231834929e-01 -7.4078438338747877e-03 0.0000000000000000e+00  3.4287499961992002e-01 -7.2782797095421025e-03 0.0000000000000000e+00  3.5527488181142808e-01 -7.1377772518816090e-03 0.0000000000000000e+00  3.6740561742347699e-01 -6.9863263870434920e-03 0.0000000000000000e+00  3.7925716375667251e-01 -6.8239520595533201e-03 0.0000000000000000e+00  3.9081959110840564e-01 -6.6507165257435347e-03 0.0000000000000000e+00  4.0208308691075118e-01 -6.4667216531876549e-03 0.0000000000000000e+00  4.1303795991175274e-01 -6.2721112039883821e-03 0.0000000000000000e+00  4.2367464425024709e-01 -6.0670730929894938e-03 0.0000000000000000e+00  4.3398370358529587e-01 -5.8518416049709206e-03 0.0000000000000000e+00  4.4395583511660935e-01 -5.6266995497463272e-03 0.0000000000000000e+00  4.5358187366857422e-01 -5.3919803248626448e-03 0.0000000000000000e+00  4.6285279564831483e-01 -5.1480698701310591e-03 0.0000000000000000e+00  4.7175972307727376e-01 -4.8954084898124028e-03 0.0000000000000000e+00  4.8029392750257704e-01 -4.6344925084088606e-03 0.0000000000000000e+00  4.8844683398326599e-01 -4.3658757215953789e-03 0.0000000000000000e+00  4.9621002494411104e-01 -4.0901706171204942e-03 0.0000000000000000e+00  5.0357524411143562e-01 -3.8080493305890674e-03 0.0000000000000000e+00  5.1053440033310515e-01 -3.5202442863661761e-03 0.0000000000000000e+00  5.1707957147271744e-01 -3.2275484753886696e-03 0.0000000000000000e+00  5.2320300818535881e-01 -2.9308153304149452e-03 0.0000000000000000e+00  5.2889713777302871e-01 -2.6309581468887434e-03 0.0000000000000000e+00  5.3415456795100269e-01 -2.3289489781183163e-03 0.0000000000000000e+00  5.3896809067949303e-01 -2.0258169392436340e-03 0.0000000000000000e+00  5.4333068591844369e-01 -1.7226458572183086e-03 0.0000000000000000e+00  5.4723552545783360e-01 -1.4205711883882102e-03 0.0000000000000000e+00  5.5067597672304092e-01 -1.1207760979185105e-03 0.0000000000000000e+00  5.5364560665901896e-01 -8.2448658734467911e-04 0.0000000000000000e+00  5.5613818563198736e-01 -5.3296553837567373e-04 0.0000000000000000e+00  5.5814769143821596e-01 -2.4750553176395435e-04 0.0000000000000000e+00  5.5966831342838586e-01 3.0579728356492503e-05 0.0000000000000000e+00  5.6069445683752805e-01 2.9996563010580186e-04 0.0000000000000000e+00  5.6122074739221972e-01 5.5932886215542821e-04 0.0000000000000000e+00  5.6124203623557034e-01 8.0736198656216999e-04 0.0000000000000000e+00  5.6075340541329977e-01 1.0427906503893102e-03 0.0000000000000000e+00  5.5975017427467366e-01 1.2643941204280636e-03 0.0000000000000000e+00  5.5822790728816618e-01 1.4710303926744718e-03 0.0000000000000000e+00  5.5618242430283016e-01 1.6616677467240493e-03 0.0000000000000000e+00  5.5360981463580239e-01 1.8354247899398102e-03 0.0000000000000000e+00  5.5050645749663696e-01 1.9916231532458506e-03 0.0000000000000000e+00  5.4686905569838584e-01 2.1298583370871101e-03 0.0000000000000000e+00  5.4269471325571206e-01 2.2501061233221971e-03 0.0000000000000000e+00  5.4259508950787549e-01 2.3529136460617539e-03 0.0000000000000000e+00  7.9422545914911331e-03 -2.3437832124625260e-02 0.0000000000000000e+00  2.3571454151238156e-02 -2.3496686864800775e-02 0.0000000000000000e+00  3.9183722385114569e-02 -2.3538046484686357e-02 0.0000000000000000e+00  5.4767659000605352e-02 -2.3561631566105589e-02 0.0000000000000000e+00  7.0311859506037661e-02 -2.3567177009041484e-02 0.0000000000000000e+00  8.5804925264160836e-02 -2.3554418339845812e-02 0.0000000000000000e+00  1.0123547179594761e-01 -2.3523091003760647e-02 0.0000000000000000e+00  1.1659213540563507e-01 -2.3472932164497105e-02 0.0000000000000000e+00  1.3186357887240080e-01 -2.3403682822864064e-02 0.0000000000000000e+00  1.4703849665519783e-01 -2.3315089838277629e-02 0.0000000000000000e+00  1.6210561984387639e-01 -2.3206907822450426e-02 0.0000000000000000e+00  1.7705372094920824e-01 -2.3078900953276082e-02 0.0000000000000000e+00  1.9187161860629603e-01 -2.2930844755265085e-02 0.0000000000000000e+00  2.0654818221401017e-01 -2.2762527869690213e-02 0.0000000000000000e+00  2.2107233653027064e-01 -2.2573753832231078e-02 0.0000000000000000e+00  2.3543306622295626e-01 -2.2364342873639705e-02 0.0000000000000000e+00  2.4961942039640150e-01 -2.2134133752096094e-02 0.0000000000000000e+00  2.6362051707468576e-01 -2.1882985624623579e-02 0.0000000000000000e+00  2.7742554767354405e-01 -2.1610779961734418e-02 0.0000000000000000e+00  2.9102378142164953e-01 -2.1317422510916034e-02 0.0000000000000000e+00  3.0440456978621788e-01 -2.1002845309725390e-02 0.0000000000000000e+00  3.1755735084023751e-01 -2.0667008746349386e-02 0.0000000000000000e+00  3.3047165364802850e-01 -2.0309903667334022e-02 0.0000000000000000e+00  3.4313710257691832e-01 -1.9931553531066709e-02 0.0000000000000000e+00  3.5554342164742408e-01 -1.9532016602372838e-02 0.0000000000000000e+00  3.6768043880066670e-01 -1.9111388176256097e-02 0.0000000000000000e+00  3.7953809021947138e-01 -1.8669802827158948e-02 0.0000000000000000e+00  3.9110642454603894e-01 -1.8207436674281395e-02 0.0000000000000000e+00  4.0237560717606785e-01 -1.7724509652677935e-02 0.0000000000000000e+00  4.1333592444377720e-01 -1.7221287767023578e-02 0.0000000000000000e+00  4.2397778789590584e-01 -1.6698085321114196e-02 0.0000000000000000e+00  4.3429173843446278e-01 -1.6155267104186667e-02 0.0000000000000000e+00  4.4426845057004960e-01 -1.5593250517081289e-02 0.0000000000000000e+00  4.5389873654583157e-01 -1.5012507603350909e-02 0.0000000000000000e+00  4.6317355057786253e-01 -1.4413566973822374e-02 0.0000000000000000e+00  4.7208399294761466e-01 -1.3797015594906958e-02 0.0000000000000000e+00  4.8062131422714510e-01 -1.3163500415009896e-02 0.0000000000000000e+00  4.8877691936999434e-01 -1.2513729782202278e-02 0.0000000000000000e+00  4.9654237193108863e-01 -1.1848474634168151e-02 0.0000000000000000e+00  5.0390939814375335e-01 -1.1168569418139851e-02 0.0000000000000000e+00  5.1086989113443049e-01 -1.0474912703028309e-02 0.0000000000000000e+00  5.1741591502278139e-01 -9.7684674244773954e-03 0.0000000000000000e+00  5.2353970914881143e-01 -9.0502607305192034e-03 0.0000000000000000e+00  5.2923369219421890e-01 -8.3213833690494333e-03 0.0000000000000000e+00  5.3449046643493525e-01 -7.5829885595004760e-03 0.0000000000000000e+00  5.3930282193535073e-01 -6.8362902722092327e-03 0.0000000000000000e+00  5.4366374086578317e-01 -6.0825608601879078e-03 0.0000000000000000e+00  5.4756640180241112e-01 -5.3231279611995093e-03 0.0000000000000000e+00  5.5100418417538810e-01 -4.5593705776000911e-03 0.0000000000000000e+00  5.5397067278321732e-01 -3.7927142136935828e-03 0.0000000000000000e+00  5.5645966250146017e-01 -3.0246249521560242e-03 0.0000000000000000e+00  5.5846516315679562e-01 -2.2566023307464232e-03 0.0000000000000000e+00  5.5998140471287550e-01 -1.4901708619640356e-03 0.0000000000000000e+00  5.6100284282840751e-01 -7.2686994726517407e-04 0.0000000000000000e+00  5.6152416497774282e-01 3.1758101815465567e-05 0.0000000000000000e+00  5.6154029733787258e-01 7.8418223748347171e-04 0.0000000000000000e+00  5.6104641284958190e-01 1.5288992982743690e-03 0.0000000000000000e+00  5.6003794073118540e-01 2.2644538582100686e-03 0.0000000000000000e+00  5.5851057857866226e-01 2.9894620596726713e-03 0.0000000000000000e+00  5.5646030864850948e-01 3.7026407996656437e-03 0.0000000000000000e+00  5.5388341990457357e-01 4.4028441100241473e-03 0.0000000000000000e+00  5.5077654053637704e-01 5.0891085957141709e-03 0.0000000000000000e+00  5.4713668505701929e-01 5.7607108469096193e-03 0.0000000000000000e+00  5.4296134340484525e-01 6.4172443031251698e-03 0.0000000000000000e+00  5.4259355981281787e-01 7.0587409381851502e-03 0.0000000000000000e+00  8.0510737881805232e-03 -3.9063053541042128e-02 0.0000000000000000e+00  2.3686154117696902e-02 -3.9116288411021854e-02 0.0000000000000000e+00  3.9304432715474548e-02 -3.9140637000855134e-02 0.0000000000000000e+00  5.4894493063793376e-02 -3.9135811302479291e-02 0.0000000000000000e+00  7.0444922943007776e-02 -3.9101542188469153e-02 0.0000000000000000e+00  8.5944318902145225e-02 -3.9037571247603500e-02 0.0000000000000000e+00  1.0138129197835628e-01 -3.8943648298679787e-02 0.0000000000000000e+00  1.1674447335539212e-01 -3.8819531546475557e-02 0.0000000000000000e+00  1.3202251974412194e-01 -3.8664988746871472e-02 0.0000000000000000e+00  1.4720411850825221e-01 -3.8479798734812685e-02 0.0000000000000000e+00  1.6227799261279258e-01 -3.8263753061668480e-02 0.0000000000000000e+00  1.7723290544261949e-01 -3.8016657663008130e-02 0.0000000000000000e+00  1.9205766553686238e-01 -3.7738334549135659e-02 0.0000000000000000e+00  2.0674113126183813e-01 -3.7428623515101650e-02 0.0000000000000000e+00  2.2127221542814399e-01 -3.7087383872989488e-02 0.0000000000000000e+00  2.3563988987497436e-01 -3.6714496215178832e-02 0.0000000000000000e+00  2.4983319000457205e-01 -3.6309864213992044e-02 0.0000000000000000e+00  2.6384121930134752e-01 -3.5873416463994903e-02 0.0000000000000000e+00  2.7765315379955946e-01 -3.5405108369633384e-02 0.0000000000000000e+00  2.9125824655674704e-01 -3.4904924082900440e-02 0.0000000000000000e+00  3.0464583206213736e-01 -3.4372878489975632e-02 0.0000000000000000e+00  3.1780533066979855e-01 -3.3809019249859851e-02 0.0000000000000000e+00  3.3072625295985913e-01 -3.3213428879979620e-02 0.0000000000000000e+00  3.4339820415131572e-01 -3.2586226888513897e-02 0.0000000000000000e+00  3.5581088841856395e-01 -3.1927571943940733e-02 0.0000000000000000e+00  3.6795411328200056e-01 -3.1237664082855415e-02 0.0000000000000000e+00  3.7981779389695969e-01 -3.0516746940391574e-02 0.0000000000000000e+00  3.9139195744569971e-01 -2.9765109998289258e-02 0.0000000000000000e+00  4.0266674739751679e-01 -2.8983090830943085e-02 0.0000000000000000e+00  4.1363242789269050e-01 -2.8171077349067212e-02 0.0000000000000000e+00  4.2427938799716808e-01 -2.7329510012846212e-02 0.0000000000000000e+00  4.3459814610529807e-01 -2.6458884004089887e-02 0.0000000000000000e+00  4.4457935418445560e-01 -2.5559751326888782e-02 0.0000000000000000e+00  4.5421380218039475e-01 -2.4632722833575763e-02 0.0000000000000000e+00  4.6349242228135912e-01 -2.3678470135135053e-02 0.0000000000000000e+00  4.7240629335543999e-01 -2.2697727377631378e-02 0.0000000000000000e+00  4.8094664522815861e-01 -2.1691292843641671e-02 0.0000000000000000e+00  4.8910486313270429e-01 -2.0660030368734834e-02 0.0000000000000000e+00  4.9687249203625161e-01 -1.9604870520557528e-02 0.0000000000000000e+00  5.0424124113665292e-01 -1.8526811509657255e-02 0.0000000000000000e+00  5.1120298823626809e-01 -1.7426919781543600e-02 0.0000000000000000e+00  5.1774978427380447e-01 -1.6306330266589314e-02 0.0000000000000000e+00  5.2387385779075868e-01 -1.5166246224632645e-02 0.0000000000000000e+00  5.2956761954306253e-01 -1.4007938633297853e-02 0.0000000000000000e+00  5.3482366707652762e-01 -1.2832745056580280e-02 0.0000000000000000e+00  5.3963478943373921e-01 -1.1642067946921374e-02 0.0000000000000000e+00  5.4399397191261423e-01 -1.0437372306747947e-02 0.0000000000000000e+00  5.4789440096523523e-01 -9.2201826306419505e-03 0.0000000000000000e+00  5.5132946922886239e-01 -7.9920790415765382e-03 0.0000000000000000e+00  5.5429278074190336e-01 -6.7546925204481582e-03 0.0000000000000000e+00  5.5677815642202999e-01 -5.5096991201604648e-03 0.0000000000000000e+00  5.5877963984938328e-01 -4.2588130314939188e-03 0.0000000000000000e+00  5.6029150349493295e-01 -3.0037783523578776e-03 0.0000000000000000e+00  5.6130825549322505e-01 -1.7463593558218957e-03 0.0000000000000000e+00  5.6182464727183012e-01 -4.8832906899476738e-04 0.0000000000000000e+00  5.6183568228538394e-01 7.6854407552289471e-04 0.0000000000000000e+00  5.6133662633727910e-01 2.0225117465959702e-03 0.0000000000000000e+00  5.6032301997586187e-01 3.2718640540157513e-03 0.0000000000000000e+00  5.5879069419044192e-01 4.5149508302222419e-03 0.0000000000000000e+00  5.5673579096757619e-01 5.7502068263881444e-03 0.0000000000000000e+00  5.5415479066023854e-01 6.9761819327043006e-03 0.0000000000000000e+00  5.5104455004291686e-01 8.1915769023972011e-03 0.0000000000000000e+00  5.4740235348576860e-01 9.3952869820992675e-03 0.0000000000000000e+00  5.4322599471518107e-01 1.0586456199659372e-02 0.0000000000000000e+00  5.4259107633197634e-01 1.1764568230308654e-02 0.0000000000000000e+00  8.1598022696141165e-03 -5.4688274957458934e-02 0.0000000000000000e+00  2.3800740856925663e-02 -5.4736048604748448e-02 0.0000000000000000e+00  3.9425004379866180e-02 -5.4743516847244690e-02 0.0000000000000000e+00  5.5021165653051311e-02 -5.4710397111252855e-02 0.0000000000000000e+00  7.0577804726000781e-02 -5.4636424715279353e-02 0.0000000000000000e+00  8.6083512121303413e-02 -5.4521350221395537e-02 0.0000000000000000e+00  1.0152689325013478e-01 -5.4364938176801880e-02 0.0000000000000000e+00  1.1689657338914242e-01 -5.4166967213325194e-02 0.0000000000000000e+00  1.3218120268238023e-01 -5.3927230903931755e-02 0.0000000000000000e+00  1.4736946108044374e-01 -5.3645539038394210e-02 0.0000000000000000e+00  1.6245006323444519e-01 -5.3321719083512763e-02 0.0000000000000000e+00  1.7741176329266600e-01 -5.2955617729837076e-02 0.0000000000000000e+00  1.9224335964208369e-01 -5.2547102501379644e-02 0.0000000000000000e+00  2.0693369958974117e-01 -5.2096063402795240e-02 0.0000000000000000e+00  2.2147168400052736e-01 -5.1602414602847271e-02 0.0000000000000000e+00  2.3584627188747098e-01 -5.1066096159875021e-02 0.0000000000000000e+00  2.5004648497954601e-01 -5.0487075784749411e-02 0.0000000000000000e+00  2.6406141223409912e-01 -4.9865350653808198e-02 0.0000000000000000e+00  2.7788021435047394e-01 -4.9200949266265663e-02 0.0000000000000000e+00  2.9149212821878845e-01 -4.8493933361051164e-02 0.0000000000000000e+00  3.0488647140345826e-01 -4.7744399876574146e-02 0.0000000000000000e+00  3.1805264653461790e-01 -4.6952482971469214e-02 0.0000000000000000e+00  3.3098014577252538e-01 -4.6118356088324819e-02 0.0000000000000000e+00  3.4365855515823851e-01 -4.5242234075237947e-02 0.0000000000000000e+00  3.5607755908207217e-01 -4.4324375336461372e-02 0.0000000000000000e+00  3.6822694459882477e-01 -4.3365084030791354e-02 0.0000000000000000e+00  3.8009660590888267e-01 -4.2364712288496496e-02 0.0000000000000000e+00  3.9167654865930723e-01 -4.1323662455973215e-02 0.0000000000000000e+00  4.0295689445683530e-01 -4.0242389331874281e-02 0.0000000000000000e+00  4.1392788516083162e-01 -3.9121402407556995e-02 0.0000000000000000e+00  4.2457988743469294e-01 -3.7961268075662150e-02 0.0000000000000000e+00  4.3490339705631798e-01 -3.6762611803317496e-02 0.0000000000000000e+00  4.4488904351993858e-01 -3.5526120232706897e-02 0.0000000000000000e+00  4.5452759437285195e-01 -3.4252543208034079e-02 0.0000000000000000e+00  4.6380995987419416e-01 -3.2942695690492470e-02 0.0000000000000000e+00  4.7272719738693553e-01 -3.1597459538083836e-02 0.0000000000000000e+00  4.8127051609785021e-01 -3.0217785117634559e-02 0.0000000000000000e+00  4.8943128147970189e-01 -2.8804692726482995e-02 0.0000000000000000e+00  4.9720102008544415e-01 -2.7359273786690393e-02 0.0000000000000000e+00  5.0457142411399380e-01 -2.5882691763972416e-02 0.0000000000000000e+00  5.1153435628128807e-01 -2.4376182785529280e-02 0.0000000000000000e+00  5.1808185451707511e-01 -2.2841055906114464e-02 0.0000000000000000e+00  5.2420613694207208e-01 -2.1278692984482261e-02 0.0000000000000000e+00  5.2989960673752634e-01 -1.9690548093418168e-02 0.0000000000000000e+00  5.3515485724796963e-01 -1.8078146440402343e-02 0.0000000000000000e+00  5.3996467709295348e-01 -1.6443082721273275e-02 0.0000000000000000e+00  5.4432205549532431e-01 -1.4787018866590985e-02 0.0000000000000000e+00  5.4822018773988523e-01 -1.3111681075908424e-02 0.0000000000000000e+00  5.5165248083197815e-01 -1.1418856093592906e-02 0.0000000000000000e+00  5.5461255945510268e-01 -9.7103866086271241e-03 0.0000000000000000e+00  5.5709427220143104e-01 -7.9881657031188446e-03 0.0000000000000000e+00  5.5909169830040517e-01 -6.2541302184115424e-03 0.0000000000000000e+00  5.6059915481100031e-01 -4.5102529347514995e-03 0.0000000000000000e+00  5.6161120470606707e-01 -2.7585334329993244e-03 0.0000000000000000e+00  5.6212266590186710e-01 -1.0009875391125932e-03 0.0000000000000000e+00  5.6212862177953105e-01 7.6036485880885338e-04 0.0000000000000000e+00  5.6162443341544122e-01 2.5235137300411038e-03 0.0000000000000000e+00  5.6060575449801864e-01 4.2864750023255595e-03 0.0000000000000000e+00  5.5906854956403185e-01 6.0473085399273645e-03 0.0000000000000000e+00  5.5700911716203316e-01 7.8041387180499038e-03 0.0000000000000000e+00  5.5442412016724252e-01 9.5551778307836430e-03 0.0000000000000000e+00  5.5131062440130474e-01 1.1298752710326590e-02 0.0000000000000000e+00  5.4766614999740071e-01 1.3033336201569951e-02 0.0000000000000000e+00  5.4348874457524876e-01 1.4757584777324494e-02 0.0000000000000000e+00  5.4258755908039658e-01 1.6470395522432069e-02 0.0000000000000000e+00  8.2683808887308169e-03 -7.0313496373875781e-02 0.0000000000000000e+00  2.3915166370896739e-02 -7.0355945800294431e-02 0.0000000000000000e+00  3.9545399308334006e-02 -7.0346661350618261e-02 0.0000000000000000e+00  5.5147645691856484e-02 -7.0285366923920636e-02 0.0000000000000000e+00  7.0710479160942127e-02 -7.0171805169738921e-02 0.0000000000000000e+00  8.6222484198170857e-02 -7.0005737286112701e-02 0.0000000000000000e+00  1.0167226027802227e-01 -6.9786943007169727e-02 0.0000000000000000e+00  1.1704842640270080e-01 -6.9515221107695369e-02 0.0000000000000000e+00  1.3233962583810691e-01 -6.9190390325207934e-02 0.0000000000000000e+00  1.4753453092071700e-01 -6.8812290576638235e-02 0.0000000000000000e+00  1.6262184786027353e-01 -6.8380784342905079e-02 0.0000000000000000e+00  1.7759032149558551e-01 -6.7895758146623492e-02 0.0000000000000000e+00  1.9242874002143051e-01 -6.7357124101050395e-02 0.0000000000000000e+00  2.0712593967208912e-01 -6.6764821505595290e-02 0.0000000000000000e+00  2.2167080936055639e-01 -6.6118818485660799e-02 0.0000000000000000e+00  2.3605229528667104e-01 -6.5419113678013271e-02 0.0000000000000000e+00  2.5025940549835973e-01 -6.4665737961571004e-02 0.0000000000000000e+00  2.6428121444160968e-01 -6.3858756237720790e-02 0.0000000000000000e+00  2.7810686745240576e-01 -6.2998269263355555e-02 0.0000000000000000e+00  2.9172558526856368e-01 -6.2084415540674495e-02 0.0000000000000000e+00  3.0512666846607256e-01 -6.1117373260052052e-02 0.000