<?xml version="1.0"?>
<VTKFile type="UnstructuredGrid"  version="0.1"  >
<UnstructuredGrid>
<Piece  NumberOfPoints="729" NumberOfCells="3072">
<Points>
<DataArray  type="Float64"  NumberOfComponents="3"  format="ascii">0 0 0  0.125 0 0  0.25 0 0  0.375 0 0  0.5 0 0  0.625 0 0  0.75 0 0  0.875 0 0  1 0 0  0 0.125 0  0.125 0.125 0  0.25 0.125 0  0.375 0.125 0  0.5 0.125 0  0.625 0.125 0  0.75 0.125 0  0.875 0.125 0  1 0.125 0  0 0.25 0  0.125 0.25 0  0.25 0.25 0  0.375 0.25 0  0.5 0.25 0  0.625 0.25 0  0.75 0.25 0  0.875 0.25 0  1 0.25 0  0 0.375 0  0.125 0.375 0  0.25 0.375 0  0.375 0.375 0  0.5 0.375 0  0.625 0.375 0  0.75 0.375 0  0.875 0.375 0  1 0.375 0  0 0.5 0  0.125 0.5 0  0.25 0.5 0  0.375 0.5 0  0.5 0.5 0  0.625 0.5 0  0.75 0.5 0  0.875 0.5 0  1 0.5 0  0 0.625 0  0.125 0.625 0  0.25 0.625 0  0.375 0.625 0  0.5 0.625 0  0.625 0.625 0  0.75 0.625 0  0.875 0.625 0  1 0.625 0  0 0.75 0  0.125 0.75 0  0.25 0.75 0  0.375 0.75 0  0.5 0.75 0  0.625 0.75 0  0.75 0.75 0  0.875 0.75 0  1 0.75 0  0 0.875 0  0.125 0.875 0  0.25 0.875 0  0.375 0.875 0  0.5 0.875 0  0.625 0.875 0  0.75 0.875 0  0.875 0.875 0  1 0.875 0  0 1 0  0.125 1 0  0.25 1 0  0.375 1 0  0.5 1 0  0.625 1 0  0.75 1 0  0.875 1 0  1 1 0  0 0 0.125  0.125 0 0.125  0.25 0 0.125  0.375 0 0.125  0.5 0 0.125  0.625 0 0.125  0.75 0 0.125  0.875 0 0.125  1 0 0.125  0 0.125 0.125  0.125 0.125 0.125  0.25 0.125 0.125  0.375 0.125 0.125  0.5 0.125 0.125  0.625 0.125 0.125  0.75 0.125 0.125  0.875 0.125 0.125  1 0.125 0.125  0 0.25 0.125  0.125 0.25 0.125  0.25 0.25 0.125  0.375 0.25 0.125  0.5 0.25 0.125  0.625 0.25 0.125  0.75 0.25 0.125  0.875 0.25 0.125  1 0.25 0.125  0 0.375 0.125  0.125 0.375 0.125  0.25 0.375 0.125  0.375 0.375 0.125  0.5 0.375 0.125  0.625 0.375 0.125  0.75 0.375 0.125  0.875 0.375 0.125  1 0.375 0.125  0 0.5 0.125  0.125 0.5 0.125  0.25 0.5 0.125  0.375 0.5 0.125  0.5 0.5 0.125  0.625 0.5 0.125  0.75 0.5 0.125  0.875 0.5 0.125  1 0.5 0.125  0 0.625 0.125  0.125 0.625 0.125  0.25 0.625 0.125  0.375 0.625 0.125  0.5 0.625 0.125  0.625 0.625 0.125  0.75 0.625 0.125  0.875 0.625 0.125  1 0.625 0.125  0 0.75 0.125  0.125 0.75 0.125  0.25 0.75 0.125  0.375 0.75 0.125  0.5 0.75 0.125  0.625 0.75 0.125  0.75 0.75 0.125  0.875 0.75 0.125  1 0.75 0.125  0 0.875 0.125  0.125 0.875 0.125  0.25 0.875 0.125  0.375 0.875 0.125  0.5 0.875 0.125  0.625 0.875 0.125  0.75 0.875 0.125  0.875 0.875 0.125  1 0.875 0.125  0 1 0.125  0.125 1 0.125  0.25 1 0.125  0.375 1 0.125  0.5 1 0.125  0.625 1 0.125  0.75 1 0.125  0.875 1 0.125  1 1 0.125  0 0 0.25  0.125 0 0.25  0.25 0 0.25  0.375 0 0.25  0.5 0 0.25  0.625 0 0.25  0.75 0 0.25  0.875 0 0.25  1 0 0.25  0 0.125 0.25  0.125 0.125 0.25  0.25 0.125 0.25  0.375 0.125 0.25  0.5 0.125 0.25  0.625 0.125 0.25  0.75 0.125 0.25  0.875 0.125 0.25  1 0.125 0.25  0 0.25 0.25  0.125 0.25 0.25  0.25 0.25 0.25  0.375 0.25 0.25  0.5 0.25 0.25  0.625 0.25 0.25  0.75 0.25 0.25  0.875 0.25 0.25  1 0.25 0.25  0 0.375 0.25  0.125 0.375 0.25  0.25 0.375 0.25  0.375 0.375 0.25  0.5 0.375 0.25  0.625 0.375 0.25  0.75 0.375 0.25  0.875 0.375 0.25  1 0.375 0.25  0 0.5 0.25  0.125 0.5 0.25  0.25 0.5 0.25  0.375 0.5 0.25  0.5 0.5 0.25  0.625 0.5 0.25  0.75 0.5 0.25  0.875 0.5 0.25  1 0.5 0.25  0 0.625 0.25  0.125 0.625 0.25  0.25 0.625 0.25  0.375 0.625 0.25  0.5 0.625 0.25  0.625 0.625 0.25  0.75 0.625 0.25  0.875 0.625 0.25  1 0.625 0.25  0 0.75 0.25  0.125 0.75 0.25  0.25 0.75 0.25  0.375 0.75 0.25  0.5 0.75 0.25  0.625 0.75 0.25  0.75 0.75 0.25  0.875 0.75 0.25  1 0.75 0.25  0 0.875 0.25  0.125 0.875 0.25  0.25 0.875 0.25  0.375 0.875 0.25  0.5 0.875 0.25  0.625 0.875 0.25  0.75 0.875 0.25  0.875 0.875 0.25  1 0.875 0.25  0 1 0.25  0.125 1 0.25  0.25 1 0.25  0.375 1 0.25  0.5 1 0.25  0.625 1 0.25  0.75 1 0.25  0.875 1 0.25  1 1 0.25  0 0 0.375  0.125 0 0.375  0.25 0 0.375  0.375 0 0.375  0.5 0 0.375  0.625 0 0.375  0.75 0 0.375  0.875 0 0.375  1 0 0.375  0 0.125 0.375  0.125 0.125 0.375  0.25 0.125 0.375  0.375 0.125 0.375  0.5 0.125 0.375  0.625 0.125 0.375  0.75 0.125 0.375  0.875 0.125 0.375  1 0.125 0.375  0 0.25 0.375  0.125 0.25 0.375  0.25 0.25 0.375  0.375 0.25 0.375  0.5 0.25 0.375  0.625 0.25 0.375  0.75 0.25 0.375  0.875 0.25 0.375  1 0.25 0.375  0 0.375 0.375  0.125 0.375 0.375  0.25 0.375 0.375  0.375 0.375 0.375  0.5 0.375 0.375  0.625 0.375 0.375  0.75 0.375 0.375  0.875 0.375 0.375  1 0.375 0.375  0 0.5 0.375  0.125 0.5 0.375  0.25 0.5 0.375  0.375 0.5 0.375  0.5 0.5 0.375  0.625 0.5 0.375  0.75 0.5 0.375  0.875 0.5 0.375  1 0.5 0.375  0 0.625 0.375  0.125 0.625 0.375  0.25 0.625 0.375  0.375 0.625 0.375  0.5 0.625 0.375  0.625 0.625 0.375  0.75 0.625 0.375  0.875 0.625 0.375  1 0.625 0.375  0 0.75 0.375  0.125 0.75 0.375  0.25 0.75 0.375  0.375 0.75 0.375  0.5 0.75 0.375  0.625 0.75 0.375  0.75 0.75 0.375  0.875 0.75 0.375  1 0.75 0.375  0 0.875 0.375  0.125 0.875 0.375  0.25 0.875 0.375  0.375 0.875 0.375  0.5 0.875 0.375  0.625 0.875 0.375  0.75 0.875 0.375  0.875 0.875 0.375  1 0.875 0.375  0 1 0.375  0.125 1 0.375  0.25 1 0.375  0.375 1 0.375  0.5 1 0.375  0.625 1 0.375  0.75 1 0.375  0.875 1 0.375  1 1 0.375  0 0 0.5  0.125 0 0.5  0.25 0 0.5  0.375 0 0.5  0.5 0 0.5  0.625 0 0.5  0.75 0 0.5  0.875 0 0.5  1 0 0.5  0 0.125 0.5  0.125 0.125 0.5  0.25 0.125 0.5  0.375 0.125 0.5  0.5 0.125 0.5  0.625 0.125 0.5  0.75 0.125 0.5  0.875 0.125 0.5  1 0.125 0.5  0 0.25 0.5  0.125 0.25 0.5  0.25 0.25 0.5  0.375 0.25 0.5  0.5 0.25 0.5  0.625 0.25 0.5  0.75 0.25 0.5  0.875 0.25 0.5  1 0.25 0.5  0 0.375 0.5  0.125 0.375 0.5  0.25 0.375 0.5  0.375 0.375 0.5  0.5 0.375 0.5  0.625 0.375 0.5  0.75 0.375 0.5  0.875 0.375 0.5  1 0.375 0.5  0 0.5 0.5  0.125 0.5 0.5  0.25 0.5 0.5  0.375 0.5 0.5  0.5 0.5 0.5  0.625 0.5 0.5  0.75 0.5 0.5  0.875 0.5 0.5  1 0.5 0.5  0 0.625 0.5  0.125 0.625 0.5  0.25 0.625 0.5  0.375 0.625 0.5  0.5 0.625 0.5  0.625 0.625 0.5  0.75 0.625 0.5  0.875 0.625 0.5  1 0.625 0.5  0 0.75 0.5  0.125 0.75 0.5  0.25 0.75 0.5  0.375 0.75 0.5  0.5 0.75 0.5  0.625 0.75 0.5  0.75 0.75 0.5  0.875 0.75 0.5  1 0.75 0.5  0 0.875 0.5  0.125 0.875 0.5  0.25 0.875 0.5  0.375 0.875 0.5  0.5 0.875 0.5  0.625 0.875 0.5  0.75 0.875 0.5  0.875 0.875 0.5  1 0.875 0.5  0 1 0.5  0.125 1 0.5  0.25 1 0.5  0.375 1 0.5  0.5 1 0.5  0.625 1 0.5  0.75 1 0.5  0.875 1 0.5  1 1 0.5  0 0 0.625  0.125 0 0.625  0.25 0 0.625  0.375 0 0.625  0.5 0 0.625  0.625 0 0.625  0.75 0 0.625  0.875 0 0.625  1 0 0.625  0 0.125 0.625  0.125 0.125 0.625  0.25 0.125 0.625  0.375 0.125 0.625  0.5 0.125 0.625  0.625 0.125 0.625  0.75 0.125 0.625  0.875 0.125 0.625  1 0.125 0.625  0 0.25 0.625  0.125 0.25 0.625  0.25 0.25 0.625  0.375 0.25 0.625  0.5 0.25 0.625  0.625 0.25 0.625  0.75 0.25 0.625  0.875 0.25 0.625  1 0.25 0.625  0 0.375 0.625  0.125 0.375 0.625  0.25 0.375 0.625  0.375 0.375 0.625  0.5 0.375 0.625  0.625 0.375 0.625  0.75 0.375 0.625  0.875 0.375 0.625  1 0.375 0.625  0 0.5 0.625  0.125 0.5 0.625  0.25 0.5 0.625  0.375 0.5 0.625  0.5 0.5 0.625  0.625 0.5 0.625  0.75 0.5 0.625  0.875 0.5 0.625  1 0.5 0.625  0 0.625 0.625  0.125 0.625 0.625  0.25 0.625 0.625  0.375 0.625 0.625  0.5 0.625 0.625  0.625 0.625 0.625  0.75 0.625 0.625  0.875 0.625 0.625  1 0.625 0.625  0 0.75 0.625  0.125 0.75 0.625  0.25 0.75 0.625  0.375 0.75 0.625  0.5 0.75 0.625  0.625 0.75 0.625  0.75 0.75 0.625  0.875 0.75 0.625  1 0.75 0.625  0 0.875 0.625  0.125 0.875 0.625  0.25 0.875 0.625  0.375 0.875 0.625  0.5 0.875 0.625  0.625 0.875 0.625  0.75 0.875 0.625  0.875 0.875 0.625  1 0.875 0.625  0 1 0.625  0.125 1 0.625  0.25 1 0.625  0.375 1 0.625  0.5 1 0.625  0.625 1 0.625  0.75 1 0.625  0.875 1 0.625  1 1 0.625  0 0 0.75  0.125 0 0.75  0.25 0 0.75  0.375 0 0.75  0.5 0 0.75  0.625 0 0.75  0.75 0 0.75  0.875 0 0.75  1 0 0.75  0 0.125 0.75  0.125 0.125 0.75  0.25 0.125 0.75  0.375 0.125 0.75  0.5 0.125 0.75  0.625 0.125 0.75  0.75 0.125 0.75  0.875 0.125 0.75  1 0.125 0.75  0 0.25 0.75  0.125 0.25 0.75  0.25 0.25 0.75  0.375 0.25 0.75  0.5 0.25 0.75  0.625 0.25 0.75  0.75 0.25 0.75  0.875 0.25 0.75  1 0.25 0.75  0 0.375 0.75  0.125 0.375 0.75  0.25 0.375 0.75  0.375 0.375 0.75  0.5 0.375 0.75  0.625 0.375 0.75  0.75 0.375 0.75  0.875 0.375 0.75  1 0.375 0.75  0 0.5 0.75  0.125 0.5 0.75  0.25 0.5 0.75  0.375 0.5 0.75  0.5 0.5 0.75  0.625 0.5 0.75  0.75 0.5 0.75  0.875 0.5 0.75  1 0.5 0.75  0 0.625 0.75  0.125 0.625 0.75  0.25 0.625 0.75  0.375 0.625 0.75  0.5 0.625 0.75  0.625 0.625 0.75  0.75 0.625 0.75  0.875 0.625 0.75  1 0.625 0.75  0 0.75 0.75  0.125 0.75 0.75  0.25 0.75 0.75  0.375 0.75 0.75  0.5 0.75 0.75  0.625 0.75 0.75  0.75 0.75 0.75  0.875 0.75 0.75  1 0.75 0.75  0 0.875 0.75  0.125 0.875 0.75  0.25 0.875 0.75  0.375 0.875 0.75  0.5 0.875 0.75  0.625 0.875 0.75  0.75 0.875 0.75  0.875 0.875 0.75  1 0.875 0.75  0 1 0.75  0.125 1 0.75  0.25 1 0.75  0.375 1 0.75  0.5 1 0.75  0.625 1 0.75  0.75 1 0.75  0.875 1 0.75  1 1 0.75  0 0 0.875  0.125 0 0.875  0.25 0 0.875  0.375 0 0.875  0.5 0 0.875  0.625 0 0.875  0.75 0 0.875  0.875 0 0.875  1 0 0.875  0 0.125 0.875  0.125 0.125 0.875  0.25 0.125 0.875  0.375 0.125 0.875  0.5 0.125 0.875  0.625 0.125 0.875  0.75 0.125 0.875  0.875 0.125 0.875  1 0.125 0.875  0 0.25 0.875  0.125 0.25 0.875  0.25 0.25 0.875  0.375 0.25 0.875  0.5 0.25 0.875  0.625 0.25 0.875  0.75 0.25 0.875  0.875 0.25 0.875  1 0.25 0.875  0 0.375 0.875  0.125 0.375 0.875  0.25 0.375 0.875  0.375 0.375 0.875  0.5 0.375 0.875  0.625 0.375 0.875  0.75 0.375 0.875  0.875 0.375 0.875  1 0.375 0.875  0 0.5 0.875  0.125 0.5 0.875  0.25 0.5 0.875  0.375 0.5 0.875  0.5 0.5 0.875  0.625 0.5 0.875  0.75 0.5 0.875  0.875 0.5 0.875  1 0.5 0.875  0 0.625 0.875  0.125 0.625 0.875  0.25 0.625 0.875  0.375 0.625 0.875  0.5 0.625 0.875  0.625 0.625 0.875  0.75 0.625 0.875  0.875 0.625 0.875  1 0.625 0.875  0 0.75 0.875  0.125 0.75 0.875  0.25 0.75 0.875  0.375 0.75 0.875  0.5 0.75 0.875  0.625 0.75 0.875  0.75 0.75 0.875  0.875 0.75 0.875  1 0.75 0.875  0 0.875 0.875  0.125 0.875 0.875  0.25 0.875 0.875  0.375 0.875 0.875  0.5 0.875 0.875  0.625 0.875 0.875  0.75 0.875 0.875  0.
[...]
<PointData  Vectors="f_816"> 
<DataArray  type="Float64"  Name="f_816"  NumberOfComponents="3" format="ascii">1.5658871816209764e-02 0.0000000000000000e+00 0.0000000000000000e+00  1.3749202792763957e-02 1.5038634217820784e-01 -1.3504892684906253e-01  1.1379342827658085e-02 3.3816091015246613e-01 -3.1060943072599873e-01  8.7762537930543560e-03 5.6729364141110095e-01 -5.3169803061116572e-01  5.8963076032119421e-03 8.4141750626273093e-01 -8.0251643444787379e-01  2.6061033610858264e-03 1.1636041537964836e+00 -1.1264670668253631e+00  -1.1335382315016511e-03 1.5360957124895411e+00 -1.5059568530637999e+00  -5.2365091270217684e-03 1.9599897894528497e+00 -1.9420512729641595e+00  0.0000000000000000e+00 2.4348755300030733e+00 -2.4348755300030733e+00  -1.3004637636231040e-01 0.0000000000000000e+00 1.5914712121634531e-01  -1.5480090986148481e-01 1.7041005100161491e-01 3.8625995525340462e-02  -1.8317863170200310e-01 3.8318651222693695e-01 -1.2770676934261332e-01  -2.1490274779924662e-01 6.4282791219963531e-01 -3.4606520323580986e-01  -2.5045857661437870e-01 9.5345094560496024e-01 -6.2101682644179501e-01  -2.9062837239885719e-01 1.3185362468566193e+00 -9.5586631666824828e-01  -3.3587315484889918e-01 1.7406244803701081e+00 -1.3524718946233723e+00  -3.8567485896466680e-01 2.2209593979452729e+00 -1.8104677416267823e+00  -3.6075808080138527e-01 2.7828897066957659e+00 -2.3502829790418054e+00  -3.1737488586830787e-01 0.0000000000000000e+00 3.5644240860753879e-01  -3.7022357974909897e-01 1.9309988567951863e-01 2.4962820099877453e-01  -4.3032137673826987e-01 4.3420720356602649e-01 9.1706963938618102e-02  -4.9739550000073385e-01 7.2841945429719512e-01 -1.2435688106404230e-01  -5.7243074064254551e-01 1.0804014640873629e+00 -4.0301086915645179e-01  -6.5696947313798038e-01 1.4940973084381184e+00 -7.4687430775902863e-01  -7.5207906402580227e-01 1.9723859373016368e+00 -1.1565507436825708e+00  -8.5715395568806030e-01 2.5166767061059150e+00 -1.6293646310510368e+00  -8.1120585275017798e-01 3.1761363320424074e+00 -2.2072254098323607e+00  -5.5077952380404327e-01 0.0000000000000000e+00 5.9554568467747482e-01  -6.3720464872828464e-01 2.1881083674512750e-01 5.0090425815235839e-01  -7.3467841394803113e-01 4.9202122103131513e-01 3.4986829761948918e-01  -8.4311757782292496e-01 8.2540737782064799e-01 1.3530615967381132e-01  -9.6421624107398729e-01 1.2242552477217294e+00 -1.4646687046141160e-01  -1.1005739327625073e+00 1.6930340537879611e+00 -4.9680516615465775e-01  -1.2543416965392629e+00 2.2350060737041102e+00 -9.1453836744399464e-01  -1.4253530592230494e+00 2.8517683163932337e+00 -1.3943279088012810e+00  -1.3608667008057183e+00 3.6195200076462402e+00 -2.0006589949702573e+00  -8.3409799090054848e-01 0.0000000000000000e+00 8.7965065439396861e-01  -9.5966443869675189e-01 2.4794516117199908e-01 7.9496910116572261e-01  -1.1001525290293044e+00 5.5753308548768588e-01 6.4890253000770470e-01  -1.2559992084522187e+00 9.3530909332741430e-01 4.3510426712838168e-01  -1.4298652851148517e+00 1.3872629401148242e+00 1.5120700896631556e-01  -1.6257354479420894e+00 1.9184589190392864e+00 -2.0253157046719061e-01  -1.8475271221038527e+00 2.5325936750127740e+00 -6.2295425570058960e-01  -2.0963480541820707e+00 3.2314768562259819e+00 -1.1021004743224303e+00  -2.0184556676850707e+00 4.1183595496332419e+00 -1.7272211604020073e+00  -1.1704077227220731e+00 0.0000000000000000e+00 1.2112360764546921e+00  -1.3405992683939889e+00 2.8095867582745576e-01 1.1334661236528434e+00  -1.5297889010877279e+00 6.3176775335394542e-01 9.9024420107596867e-01  -1.7394858501805686e+00 1.0598440522432935e+00 7.7691693661149852e-01  -1.9734451485334159e+00 1.5719748545880488e+00 4.9261803495981793e-01  -2.2370582758749995e+00 2.1738987563816230e+00 1.3910190801790456e-01  -2.5366773129195228e+00 2.8698046050875541e+00 -2.7868848431191440e-01  -2.8765188668324582e+00 3.6617430007537211e+00 -7.5062913537351017e-01  -2.7913412564998770e+00 4.6784233555952586e+00 -1.3859423389944363e+00  -1.5616456933366276e+00 0.0000000000000000e+00 1.5917711320544334e+00  -1.7814405782034768e+00 3.1836788888958556e-01 1.5169459625639610e+00  -2.0252808576317634e+00 7.1588665241052807e-01 1.3749320996318413e+00  -2.2965092876770647e+00 1.2009606482915647e+00 1.1632645469366518e+00  -2.5998991232044846e+00 1.7812808747363966e+00 8.8200026802913389e-01  -2.9416425736306597e+00 2.4633500129177333e+00 5.3346975014828546e-01  -3.3301892172968035e+00 3.2519146488590169e+00 1.2332338503001194e-01  -3.7758498634659743e+00 4.1492984168323579e+00 -3.3756194352397095e-01  -3.6849020538599468e+00 5.3059730187613852e+00 -9.7909047543213146e-01  -2.0080985255139381e+00 0.0000000000000000e+00 2.0213723558947851e+00  -2.2809814733521558e+00 3.6075808080138527e-01 1.9452620670179286e+00  -2.5864275124504110e+00 8.1120585275017798e-01 1.8056870100689355e+00  -2.9294074264988770e+00 1.3608667008057183e+00 1.6008874645829969e+00  -3.3158229228804452e+00 2.0184556676850707e+00 1.3304717080712041e+00  -3.7527861792893766e+00 2.7913412564998770e+00 9.9564556216635669e-01  -4.2499440183583639e+00 3.6849020538599468e+00 5.9973653748129241e-01  -4.8230833443781354e+00 4.7017710823462187e+00 1.4847701988440765e-01  -4.7017710823462187e+00 6.0078178677527072e+00 -5.1315812417446183e-01  -2.4348755300030733e+00 0.0000000000000000e+00 2.4348755300030733e+00  -2.7828897066957659e+00 3.6075808080138527e-01 2.3502829790418054e+00  -3.1761363320424074e+00 8.1120585275017798e-01 2.2072254098323607e+00  -3.6195200076462402e+00 1.3608667008057183e+00 2.0006589949702573e+00  -4.1183595496332419e+00 2.0184556676850707e+00 1.7272211604020073e+00  -4.6784233555952586e+00 2.7913412564998770e+00 1.3859423389944363e+00  -5.3059730187613852e+00 3.6849020538599468e+00 9.7909047543213146e-01  -6.0078178677527072e+00 4.7017710823462187e+00 5.1315812417446183e-01  -5.8409627528094186e+00 5.8409627528094186e+00 0.0000000000000000e+00  1.8831367254974535e-01 -1.5038634217820784e-01 -8.7607790381374617e-03  2.0589451173842296e-01 1.5107416763484732e-02 -1.6652265037654984e-01  2.2546544551694281e-01 2.1713739736540405e-01 -3.6993378801975729e-01  2.4801314894479093e-01 4.5876409553140840e-01 -6.2451728882999058e-01  2.7391725075344941e-01 7.4313156332787322e-01 -9.3477177389021571e-01  3.0337747265522264e-01 1.0729582178086754e+00 -1.3042364350850775e+00  3.3697994363597078e-01 1.4501957766969018e+00 -1.7352680391310900e+00  3.7647537469836823e-01 1.8758452691153034e+00 -2.2285332275283256e+00  3.6075808080138527e-01 2.3264687125792900e+00 -2.7590754402332505e+00  5.4454101281507544e-02 -1.7041005100161491e-01 1.7041005100161491e-01  4.8462372210329320e-02 1.4961629721930367e-02 2.6482140076325579e-02  4.1747598487689122e-02 2.4190931881597547e-01 -1.6859009311168055e-01  3.5379586175840749e-02 5.1437082472936779e-01 -4.2163997958506705e-01  2.8855139432292620e-02 8.3619230928238486e-01 -7.3747003173662651e-01  2.1143850895733132e-02 1.2106080185894159e+00 -1.1194203779202323e+00  1.2129582512811543e-02 1.6397990280814583e+00 -1.5691311838344095e+00  4.5127227073379697e-03 2.1244949867824370e+00 -2.0855178989282552e+00  1.6917149946746909e-02 2.6632195219705110e+00 -2.6632195219705110e+00  -1.2669564343053663e-01 -1.9309988567951863e-01 3.9265310096609252e-01  -1.6194623394929394e-01 1.5752471472179695e-02 2.6164731055886592e-01  -2.0122053433533690e-01 2.7134036114472759e-01 7.4182486154963978e-02  -2.4344709824567390e-01 5.7910699685378053e-01 -1.7776187659494075e-01  -2.9004341615685236e-01 9.4395990718845846e-01 -4.9894608700584975e-01  -3.4332521859630066e-01 1.3697247796011660e+00 -8.9191594161216337e-01  -4.0421649270866022e-01 1.8584230705974774e+00 -1.3565930750163029e+00  -4.6930963411017534e-01 2.4094218292464915e+00 -1.8884424135003088e+00  -4.3201654755814672e-01 3.0435559376454009e+00 -2.5011140587213316e+00  -3.6033016806327034e-01 -2.1881083674512750e-01 6.6209481303704798e-01  -4.3069757871081527e-01 1.7340268859645531e-02 5.4277197142832778e-01  -5.0833966077962556e-01 3.0572272540080647e-01 3.6166378985653702e-01  -5.9239699082318498e-01 6.5384004835857568e-01 1.1017569394589566e-01  -6.8543801492913004e-01 1.0680386252019585e+00 -2.1583235969610892e-01  -7.9151112108285959e-01 1.5528292462368609e+00 -6.1750792657669906e-01  -9.1314776284169308e-01 2.1096270465045386e+00 -1.0923112725853852e+00  -1.0469680406395030e+00 2.7351853114777716e+00 -1.6313222884306788e+00  -9.8838138429110611e-01 3.4720144228661756e+00 -2.2670436452647778e+00  -6.5065967171389993e-01 -2.4794516117199908e-01 9.8233069551766639e-01  -7.6197850385278820e-01 1.9105656443071755e-02 8.7313059879099253e-01  -8.8353103075340034e-01 3.4449267974754805e-01 6.9696247745148532e-01  -1.0149873221115371e+00 7.3829680008500231e-01 4.4548622444035990e-01  -1.1602974970603657e+00 1.2086835552174044e+00 1.1571182577989858e-01  -1.3257517649873192e+00 1.7610610562631124e+00 -2.9179492137146523e-01  -1.5167737879920353e+00 2.3959677460425972e+00 -7.7173965904959507e-01  -1.7314460743894917e+00 3.1062433622451615e+00 -1.3103243149363726e+00  -1.6566813690648656e+00 3.9534648391088423e+00 -1.9571979860138262e+00  -1.0008398071171800e+00 -2.8095867582745576e-01 1.3561429963114091e+00  -1.1587231500302506e+00 2.0154678578829299e-02 1.2549617134853239e+00  -1.3297358946912166e+00 3.8668143960674844e-01 1.0823349148968628e+00  -1.5146800950406323e+00 8.3167532079298445e-01 8.3114465212501776e-01  -1.7187826465938678e+00 1.3653886363508501e+00 4.9973857063152138e-01  -1.9504174448968337e+00 1.9945125486961566e+00 9.0104878223177698e-02  -2.2191047959331511e+00 2.7190209905448040e+00 -3.9019940666017483e-01  -2.5275600897724932e+00 3.5269784995146889e+00 -9.2274100946468218e-01  -2.4417654013928858e+00 4.4931324180869794e+00 -1.5704784174713649e+00  -1.4121811415603491e+00 -3.1836788888958556e-01 1.7851664265546379e+00  -1.6214109130857726e+00 1.9709993354857066e-02 1.6890179763550921e+00  -1.8479102779594772e+00 4.3181375400716737e-01 1.5191334085913308e+00  -2.0947239233512969e+00 9.3394500892264620e-01 1.2704406254330953e+00  -2.3678374503040547e+00 1.5383030089593406e+00 9.4209507941446513e-01  -2.6761773818036900e+00 2.2531790155290756e+00 5.3630561001272170e-01  -3.0324988223676947e+00 3.0791754386871877e+00 6.0904014931674855e-02  -3.4488086191945198e+00 4.0007786700116030e+00 -4.6379961827922855e-01  -3.3504910334041678e+00 5.0966266685935935e+00 -1.1094548576483840e+00  -1.8825995362873216e+00 -3.6075808080138527e-01 2.2694989417637297e+00  -2.1455292706325619e+00 1.7939185040890746e-02 2.1741540851287251e+00  -2.4350297450967218e+00 4.8164697263266498e-01 2.0088141201000465e+00  -2.7564912720857371e+00 1.0483878678152461e+00 1.7692037949130801e+00  -3.1164100362198819e+00 1.7316822758033781e+00 1.4538274163054989e+00  -3.5234271204933911e+00 2.5410715330597831e+00 1.0634871056367978e+00  -3.9907690454104650e+00 3.4785441666826538e+00 6.0279143000502255e-01  -4.5393261603791402e+00 4.5288877264686329e+00 8.4654189899947774e-02  -4.3995649789849649e+00 5.7699799321781828e+00 -5.8148433458696624e-01  -2.3264687125792900e+00 -3.6075808080138527e-01 2.7590754402332505e+00  -2.6632195219705110e+00 1.7939185040890746e-02 2.6632195219705110e+00  -3.0435559376454009e+00 4.8164697263266498e-01 2.5011140587213316e+00  -3.4720144228661756e+00 1.0483878678152461e+00 2.2670436452647778e+00  -3.9534648391088423e+00 1.7316822758033781e+00 1.9571979860138262e+00  -4.4931324180869794e+00 2.5410715330597831e+00 1.5704784174713649e+00  -5.0966266685935935e+00 3.4785441666826538e+00 1.1094548576483840e+00  -5.7699799321781828e+00 4.5288877264686329e+00 5.8148433458696624e-01  -5.6380357722547769e+00 5.7281301166552465e+00 0.0000000000000000e+00  3.9559305734351302e-01 -3.3816091015246613e-01 -1.8281498455072653e-02  4.3756502050181345e-01 -1.6308224415655748e-01 -2.0159065226924922e-01  4.8493410159474654e-01 4.8057542924298494e-02 -4.3678380497966734e-01  5.3950441550707007e-01 2.9716534006947298e-01 -7.2930444386644155e-01  6.0223267843050443e-01 5.8700738224866200e-01 -1.0837104827260711e+00  6.7382946081960171e-01 9.2030306575202914e-01 -1.5036347713285614e+00  7.5564752082265407e-01 1.2994374644302946e+00 -1.9916362769965574e+00  8.5098985922365622e-01 1.7269067721294054e+00 -2.5489658411960407e+00  8.1120585275017798e-01 2.1575311447849366e+00 -3.1264420669949833e+00  2.7236396728081608e-01 -3.8318651222693695e-01 1.8363329694036309e-01  2.9018957173866727e-01 -1.8897568359221920e-01 1.4269154455922278e-02  3.1111883447315858e-01 4.6592053615396388e-02 -2.1332806990122899e-01  3.3702383875255615e-01 3.2637742315296220e-01 -5.0543483347145257e-01  3.6759154278567396e-01 6.5394863584601526e-01 -8.6657504459938695e-01  4.0184330621828263e-01 1.0326198923313978e+00 -1.3000092371968446e+00  4.4024192375063337e-01 1.4650828434928072e+00 -1.8076915480388325e+00  4.8764611292560983e-01 1.9536925665869713e+00 -2.3897578585134882e+00  4.7976111827496376e-01 2.4753812025741917e+00 -3.0178230814982605e+00  9.6329046301751875e-02 -4.3420720356602649e-01 4.3420720356602649e-01  8.3949798007972101e-02 -2.1700230280807145e-01 2.7782458309644192e-01  7.1572355705540824e-02 4.6714047323160715e-02 5.7177127075609471e-02  6.1083840845789300e-02 3.6167857295539430e-01 -2.3505286488727425e-01  5.0973367478741954e-02 7.3279109305820089e-01 -6.0318696656032933e-01  3.8706311062118540e-02 1.1640377376908930e+00 -1.0494363810600067e+00  2.4006114971945006e-02 1.6578187599735463e+00 -1.5736062027744655e+00  1.3046389447060193e-02 2.2148725051307245e+00 -2.1717945259570515e+00  3.2251179840628551e-02 2.8341335265837659e+00 -2.8341335265837659e+00  -1.3802662621597134e-01 -4.9202122103131513e-01 7.3809637262609484e-01  -1.8698815678944139e-01 -2.4775239304622734e-01 5.9416400600279451e-01  -2.3895718812355665e-01 4.8340489181722006e-02 3.7971609126384909e-01  -2.9221266899867726e-01 4.0368530931154345e-01 8.6918354037350876e-02  -3.4964698516141124e-01 8.2509031883011275e-01 -2.8784513091660824e-01  -4.1578180938291520e-01 1.3173040530737927e+00 -7.4503539190470025e-01  -4.9251659433972944e-01 1.8816651834581786e+00 -1.2811481743091813e+00  -5.7333840676922432e-01 2.5153714473592195e+00 -1.8865540834596792e+00  -5.3147392312595665e-01 3.2377986126821576e+00 -2.5688969996667628e+00  -4.3469595859562010e-01 -5.5753308548768588e-01 1.0993527026847112e+00  -5.2659672791914436e-01 -2.8273784386031159e-01 9.6752048506405419e-01  -6.2402715256683072e-01 4.9707249351261328e-02 7.5869666821018722e-01  -7.2571980749911047e-01 4.5067884166805872e-01 4.6539600462754604e-01  -8.3615089431842615e-01 9.2949759209211780e-01 8.5204557394601865e-02  -9.6239906967404532e-01 1.4919691364782228e+00 -3.8028603233387925e-01  -1.1094992455977688e+00 2.1378566197730140e+00 -9.2379542421301553e-01  -1.2723142014403450e+00 2.8587733619888405e+00 -1.5289174598489392e+00  -1.2133449547821504e+00 3.6906142899263830e+00 -2.2177958701970728e+00  -7.9619411532079309e-01 -6.3176775335394542e-01 1.5211035721924691e+00  -9.3693653434459256e-01 -3.2394506872677853e-01 1.4005313414733411e+00  -1.0854215190911631e+00 4.8341331794282516e-02 1.1968772043485028e+00  -1.2415435575983917e+00 4.9998085982404539e-01 9.0414193908275675e-01  -1.4112011092291767e+00 1.0432404998729259e+00 5.2126457756708189e-01  -1.6038333045855837e+00 1.6855656541333142e+00 5.1380830437795399e-02  -1.8289731112097101e+00 2.4255253228597904e+00 -4.9518768266703428e-01  -2.0862819794771266e+00 3.2477967698419410e+00 -1.0952663716842328e+00  -2.0160424739820550e+00 4.1970505850790145e+00 -1.7795851893325143e+00  -1.2224244111629219e+00 -7.1588665241052807e-01 2.0051726585746197e+00  -1.4162878518175153e+00 -3.7308651104456170e-01 1.8932093576255782e+00  -1.6213069247624565e+00 4.2760812072081024e-02 1.6944627816269568e+00  -1.8400325785794431e+00 5.5048408067651777e-01 1.4054783348676745e+00  -2.0791033424333745e+00 1.1650666772662834e+00 1.0259006782371660e+00  -2.3485177937902040e+00 1.8960727764954606e+00 5.5880801737093844e-01  -2.6613803480631821e+00 2.7425562329844073e+00 1.4784030960928174e-02  -3.0269018923812308e+00 3.6837690568567747e+00 -5.7972353128455900e-01  -2.9456711586570594e+00 4.7618197779341305e+00 -1.2571770556917419e+00  -1.7083639797454151e+00 -8.1120585275017798e-01 2.5516384465783126e+00  -1.9549832757360954e+00 -4.3018694625133158e-01 2.4413282233346982e+00  -2.2226347519929521e+00 3.5380733996014553e-02 2.2488502966693380e+00  -2.5166128558327974e+00 6.0686614697349750e-01 1.9711753336887985e+00  -2.8434931252957676e+00 1.3009104022210798e+00 1.6066242220867630e+00  -3.2123319440797502e+00 2.1287013085331274e+00 1.1562596120646007e+00  -3.6367797499164074e+00 3.0910270262525645e+00 6.2669545317754238e-01  -4.1364152336322553e+00 4.1668841574932367e+00 3.6538839935227330e-02  -4.0212556337447714e+00 5.3898943676806761e+00 -6.5890807421981290e-01  -2.1575311447849366e+00 -8.1120585275017798e-01 3.1264420669949833e+00  -2.4753812025741917e+00 -4.3018694625133158e-01 3.0178230814982605e+00  -2.8341335265837659e+00 3.5380733996014553e-02 2.8341335265837659e+00  -3.2377986126821576e+00 6.0686614697349750e-01 2.5688969996667628e+00  -3.6906142899263830e+00 1.3009104022210798e+00 2.2177958701970728e+00  -4.1970505850790145e+00 2.1287013085331274e+00 1.7795851893325143e+00  -4.7618197779341305e+00 3.0910270262525645e+00 1.2571770556917419e+00  -5.3898943676806761e+00 4.1668841574932367e+00 6.5890807421981290e-01  -5.2948585038632539e+00 5.3921053231278595e+00 0.0000000000000000e+00  6.4037616093206440e-01 -5.6729364141110095e-01 -2.8252043266373872e-02  7.1236380633104701e-01 -3.8937551997779779e-01 -2.4004765861861727e-01  7.9451554381455913e-01 -1.7569650892716968e-01 -5.1088685959209656e-01  8.8936601831148054e-01 7.4880081088979644e-02 -8.4582402224086151e-01  9.9846690813617489e-01 3.6513395307807200e-01 -1.2494043614534340e+00  1.1230662087477770e+00 6.9826550030820655e-01 -1.7254987675208679e+00  1.2652030208660801e+00 1.0777682738221535e+00 -2.2772937584932920e+00  1.4295040263889083e+00 1.5086154630514681e+00 -2.9074595152997023e+00  1.3608667008057183e+00 1.9238619791424298e+00 -3.5427229918184127e+00  5.2608820613944574e-01 -6.4282791219963531e-01 1.9954393590771480e-01  5.7361628602924042e-01 -4.4682511855055262e-01 2.5416361467971993e-03  6.2976488913473516e-01 -2.0957299718506128e-01 -2.6116163487054161e-01  6.9703235898668847e-01 7.1095125337249154e-02 -5.9658922987834739e-01  7.7532128930170008e-01 3.9881671261760115e-01 -1.0076831891303430e+00  8.6369873463721047e-01 7.7747386913122341e-01 -1.4977650973610550e+00  9.6289112187423220e-01 1.2110609618761974e+00 -2.0699143147917543e+00  1.0794122018831107e+00 1.7048004590251211e+00 -2.7272465952874603e+00  1.0459165662804770e+00 2.2146707788277218e+00 -3.4196415564291196e+00  3.5396601496601388e-01 -7.2841945429719512e-01 4.8234430270241541e-01  3.7046290364228973e-01 -5.1034216823348821e-01 2.9908373556112211e-01  3.9284141456893351e-01 -2.4592260523840204e-01 4.1963997673603731e-02  4.2362172352793970e-01 6.9172074647979170e-02 -2.9464752834470676e-01  4.6131207806475827e-01 4.4008639475296929e-01 -7.1413400756719803e-01  5.0323835904905134e-01 8.7149681553979497e-01 -1.2184993370191661e+00  5.4938144371624964e-01 1.3672937306942083e+00 -1.8085280529804131e+00  6.0791215992592307e-01 1.9314727200935757e+00 -2.4833269897192993e+00  6.0326100176803155e-01 2.5425924084178320e+00 -3.2114940214332268e+00  1.1879741021568459e-01 -8.2540737782064799e-01 8.2540737782064799e-01  9.7178541617111425e-02 -5.8099883903243055e-01 6.5631806049052088e-01  7.8672961268572178e-02 -2.8518781410137012e-01 4.0574952673009701e-01  6.5693576550394817e-02 6.9516977685806919e-02 6.7843714143939693e-02  5.5289785661046198e-02 4.9048819312256287e-01 -3.5982223687605908e-01  4.2786291543552540e-02 9.8332075833770316e-01 -8.7712139329786210e-01  2.6639630990614449e-02 1.5509371991888203e+00 -1.4808899442796599e+00  1.5372529650107304e-02 2.1939206927103156e+00 -2.1636712233436954e+00  3.4425704404628256e-02 2.9109416612604035e+00 -2.910941661260403