<?xml version="1.0"?>
<VTKFile type="UnstructuredGrid"  version="0.1"  >
<UnstructuredGrid>
<Piece  NumberOfPoints="16641" NumberOfCells="32768">
<Points>
<DataArray  type="Float64"  NumberOfComponents="3"  format="ascii">0 0 0  0.0078125 0 0  0.015625 0 0  0.0234375 0 0  0.03125 0 0  0.0390625 0 0  0.046875 0 0  0.0546875 0 0  0.0625 0 0  0.0703125 0 0  0.078125 0 0  0.0859375 0 0  0.09375 0 0  0.1015625 0 0  0.109375 0 0  0.1171875 0 0  0.125 0 0  0.1328125 0 0  0.140625 0 0  0.1484375 0 0  0.15625 0 0  0.1640625 0 0  0.171875 0 0  0.1796875 0 0  0.1875 0 0  0.1953125 0 0  0.203125 0 0  0.2109375 0 0  0.21875 0 0  0.2265625 0 0  0.234375 0 0  0.2421875 0 0  0.25 0 0  0.2578125 0 0  0.265625 0 0  0.2734375 0 0  0.28125 0 0  0.2890625 0 0  0.296875 0 0  0.3046875 0 0  0.3125 0 0  0.3203125 0 0  0.328125 0 0  0.3359375 0 0  0.34375 0 0  0.3515625 0 0  0.359375 0 0  0.3671875 0 0  0.375 0 0  0.3828125 0 0  0.390625 0 0  0.3984375 0 0  0.40625 0 0  0.4140625 0 0  0.421875 0 0  0.4296875 0 0  0.4375 0 0  0.4453125 0 0  0.453125 0 0  0.4609375 0 0  0.46875 0 0  0.4765625 0 0  0.484375 0 0  0.4921875 0 0  0.5 0 0  0.5078125 0 0  0.515625 0 0  0.5234375 0 0  0.53125 0 0  0.5390625 0 0  0.546875 0 0  0.5546875 0 0  0.5625 0 0  0.5703125 0 0  0.578125 0 0  0.5859375 0 0  0.59375 0 0  0.6015625 0 0  0.609375 0 0  0.6171875 0 0  0.625 0 0  0.6328125 0 0  0.640625 0 0  0.6484375 0 0  0.65625 0 0  0.6640625 0 0  0.671875 0 0  0.6796875 0 0  0.6875 0 0  0.6953125 0 0  0.703125 0 0  0.7109375 0 0  0.71875 0 0  0.7265625 0 0  0.734375 0 0  0.7421875 0 0  0.75 0 0  0.7578125 0 0  0.765625 0 0  0.7734375 0 0  0.78125 0 0  0.7890625 0 0  0.796875 0 0  0.8046875 0 0  0.8125 0 0  0.8203125 0 0  0.828125 0 0  0.8359375 0 0  0.84375 0 0  0.8515625 0 0  0.859375 0 0  0.8671875 0 0  0.875 0 0  0.8828125 0 0  0.890625 0 0  0.8984375 0 0  0.90625 0 0  0.9140625 0 0  0.921875 0 0  0.9296875 0 0  0.9375 0 0  0.9453125 0 0  0.953125 0 0  0.9609375 0 0  0.96875 0 0  0.9765625 0 0  0.984375 0 0  0.9921875 0 0  1 0 0  0 0.0078125 0  0.0078125 0.0078125 0  0.015625 0.0078125 0  0.0234375 0.0078125 0  0.03125 0.0078125 0  0.0390625 0.0078125 0  0.046875 0.0078125 0  0.0546875 0.0078125 0  0.0625 0.0078125 0  0.0703125 0.0078125 0  0.078125 0.0078125 0  0.0859375 0.0078125 0  0.09375 0.0078125 0  0.1015625 0.0078125 0  0.109375 0.0078125 0  0.1171875 0.0078125 0  0.125 0.0078125 0  0.1328125 0.0078125 0  0.140625 0.0078125 0  0.1484375 0.0078125 0  0.15625 0.0078125 0  0.1640625 0.0078125 0  0.171875 0.0078125 0  0.1796875 0.0078125 0  0.1875 0.0078125 0  0.1953125 0.0078125 0  0.203125 0.0078125 0  0.2109375 0.0078125 0  0.21875 0.0078125 0  0.2265625 0.0078125 0  0.234375 0.0078125 0  0.2421875 0.0078125 0  0.25 0.0078125 0  0.2578125 0.0078125 0  0.265625 0.0078125 0  0.2734375 0.0078125 0  0.28125 0.0078125 0  0.2890625 0.0078125 0  0.296875 0.0078125 0  0.3046875 0.0078125 0  0.3125 0.0078125 0  0.3203125 0.0078125 0  0.328125 0.0078125 0  0.3359375 0.0078125 0  0.34375 0.0078125 0  0.3515625 0.0078125 0  0.359375 0.0078125 0  0.3671875 0.0078125 0  0.375 0.0078125 0  0.3828125 0.0078125 0  0.390625 0.0078125 0  0.3984375 0.0078125 0  0.40625 0.0078125 0  0.4140625 0.0078125 0  0.421875 0.0078125 0  0.4296875 0.0078125 0  0.4375 0.0078125 0  0.4453125 0.0078125 0  0.453125 0.0078125 0  0.4609375 0.0078125 0  0.46875 0.0078125 0  0.4765625 0.0078125 0  0.484375 0.0078125 0  0.4921875 0.0078125 0  0.5 0.0078125 0  0.5078125 0.0078125 0  0.515625 0.0078125 0  0.5234375 0.0078125 0  0.53125 0.0078125 0  0.5390625 0.0078125 0  0.546875 0.0078125 0  0.5546875 0.0078125 0  0.5625 0.0078125 0  0.5703125 0.0078125 0  0.578125 0.0078125 0  0.5859375 0.0078125 0  0.59375 0.0078125 0  0.6015625 0.0078125 0  0.609375 0.0078125 0  0.6171875 0.0078125 0  0.625 0.0078125 0  0.6328125 0.0078125 0  0.640625 0.0078125 0  0.6484375 0.0078125 0  0.65625 0.0078125 0  0.6640625 0.0078125 0  0.671875 0.0078125 0  0.6796875 0.0078125 0  0.6875 0.0078125 0  0.6953125 0.0078125 0  0.703125 0.0078125 0  0.7109375 0.0078125 0  0.71875 0.0078125 0  0.7265625 0.0078125 0  0.734375 0.0078125 0  0.7421875 0.0078125 0  0.75 0.0078125 0  0.7578125 0.0078125 0  0.765625 0.0078125 0  0.7734375 0.0078125 0  0.78125 0.0078125 0  0.7890625 0.0078125 0  0.796875 0.0078125 0  0.8046875 0.0078125 0  0.8125 0.0078125 0  0.8203125 0.0078125 0  0.828125 0.0078125 0  0.8359375 0.0078125 0  0.84375 0.0078125 0  0.8515625 0.0078125 0  0.859375 0.0078125 0  0.8671875 0.0078125 0  0.875 0.0078125 0  0.8828125 0.0078125 0  0.890625 0.0078125 0  0.8984375 0.0078125 0  0.90625 0.0078125 0  0.9140625 0.0078125 0  0.921875 0.0078125 0  0.9296875 0.0078125 0  0.9375 0.0078125 0  0.9453125 0.0078125 0  0.953125 0.0078125 0  0.9609375 0.0078125 0  0.96875 0.0078125 0  0.9765625 0.0078125 0  0.984375 0.0078125 0  0.9921875 0.0078125 0  1 0.0078125 0  0 0.015625 0  0.0078125 0.015625 0  0.015625 0.015625 0  0.0234375 0.015625 0  0.03125 0.015625 0  0.0390625 0.015625 0  0.046875 0.015625 0  0.0546875 0.015625 0  0.0625 0.015625 0  0.0703125 0.015625 0  0.078125 0.015625 0  0.0859375 0.015625 0  0.09375 0.015625 0  0.1015625 0.015625 0  0.109375 0.015625 0  0.1171875 0.015625 0  0.125 0.015625 0  0.1328125 0.015625 0  0.140625 0.015625 0  0.1484375 0.015625 0  0.15625 0.015625 0  0.1640625 0.015625 0  0.171875 0.015625 0  0.1796875 0.015625 0  0.1875 0.015625 0  0.1953125 0.015625 0  0.203125 0.015625 0  0.2109375 0.015625 0  0.21875 0.015625 0  0.2265625 0.015625 0  0.234375 0.015625 0  0.2421875 0.015625 0  0.25 0.015625 0  0.2578125 0.015625 0  0.265625 0.015625 0  0.2734375 0.015625 0  0.28125 0.015625 0  0.2890625 0.015625 0  0.296875 0.015625 0  0.3046875 0.015625 0  0.3125 0.015625 0  0.3203125 0.015625 0  0.328125 0.015625 0  0.3359375 0.015625 0  0.34375 0.015625 0  0.3515625 0.015625 0  0.359375 0.015625 0  0.3671875 0.015625 0  0.375 0.015625 0  0.3828125 0.015625 0  0.390625 0.015625 0  0.3984375 0.015625 0  0.40625 0.015625 0  0.4140625 0.015625 0  0.421875 0.015625 0  0.4296875 0.015625 0  0.4375 0.015625 0  0.4453125 0.015625 0  0.453125 0.015625 0  0.4609375 0.015625 0  0.46875 0.015625 0  0.4765625 0.015625 0  0.484375 0.015625 0  0.4921875 0.015625 0  0.5 0.015625 0  0.5078125 0.015625 0  0.515625 0.015625 0  0.5234375 0.015625 0  0.53125 0.015625 0  0.5390625 0.015625 0  0.546875 0.015625 0  0.5546875 0.015625 0  0.5625 0.015625 0  0.5703125 0.015625 0  0.578125 0.015625 0  0.5859375 0.015625 0  0.59375 0.015625 0  0.6015625 0.015625 0  0.609375 0.015625 0  0.6171875 0.015625 0  0.625 0.015625 0  0.6328125 0.015625 0  0.640625 0.015625 0  0.6484375 0.015625 0  0.65625 0.015625 0  0.6640625 0.015625 0  0.671875 0.015625 0  0.6796875 0.015625 0  0.6875 0.015625 0  0.6953125 0.015625 0  0.703125 0.015625 0  0.7109375 0.015625 0  0.71875 0.015625 0  0.7265625 0.015625 0  0.734375 0.015625 0  0.7421875 0.015625 0  0.75 0.015625 0  0.7578125 0.015625 0  0.765625 0.015625 0  0.7734375 0.015625 0  0.78125 0.015625 0  0.7890625 0.015625 0  0.796875 0.015625 0  0.8046875 0.015625 0  0.8125 0.015625 0  0.8203125 0.015625 0  0.828125 0.015625 0  0.8359375 0.015625 0  0.84375 0.015625 0  0.8515625 0.015625 0  0.859375 0.015625 0  0.8671875 0.015625 0  0.875 0.015625 0  0.8828125 0.015625 0  0.890625 0.015625 0  0.8984375 0.015625 0  0.90625 0.015625 0  0.9140625 0.015625 0  0.921875 0.015625 0  0.9296875 0.015625 0  0.9375 0.015625 0  0.9453125 0.015625 0  0.953125 0.015625 0  0.9609375 0.015625 0  0.96875 0.015625 0  0.9765625 0.015625 0  0.984375 0.015625 0  0.9921875 0.015625 0  1 0.015625 0  0 0.0234375 0  0.0078125 0.0234375 0  0.015625 0.0234375 0  0.0234375 0.0234375 0  0.03125 0.0234375 0  0.0390625 0.0234375 0  0.046875 0.0234375 0  0.0546875 0.0234375 0  0.0625 0.0234375 0  0.0703125 0.0234375 0  0.078125 0.0234375 0  0.0859375 0.0234375 0  0.09375 0.0234375 0  0.1015625 0.0234375 0  0.109375 0.0234375 0  0.1171875 0.0234375 0  0.125 0.0234375 0  0.1328125 0.0234375 0  0.140625 0.0234375 0  0.1484375 0.0234375 0  0.15625 0.0234375 0  0.1640625 0.0234375 0  0.171875 0.0234375 0  0.1796875 0.0234375 0  0.1875 0.0234375 0  0.1953125 0.0234375 0  0.203125 0.0234375 0  0.2109375 0.0234375 0  0.21875 0.0234375 0  0.2265625 0.0234375 0  0.234375 0.0234375 0  0.2421875 0.0234375 0  0.25 0.0234375 0  0.2578125 0.0234375 0  0.265625 0.0234375 0  0.2734375 0.0234375 0  0.28125 0.0234375 0  0.2890625 0.0234375 0  0.296875 0.0234375 0  0.3046875 0.0234375 0  0.3125 0.0234375 0  0.3203125 0.0234375 0  0.328125 0.0234375 0  0.3359375 0.0234375 0  0.34375 0.0234375 0  0.3515625 0.0234375 0  0.359375 0.0234375 0  0.3671875 0.0234375 0  0.375 0.0234375 0  0.3828125 0.0234375 0  0.390625 0.0234375 0  0.3984375 0.0234375 0  0.40625 0.0234375 0  0.4140625 0.0234375 0  0.421875 0.0234375 0  0.4296875 0.0234375 0  0.4375 0.0234375 0  0.4453125 0.0234375 0  0.453125 0.0234375 0  0.4609375 0.0234375 0  0.46875 0.0234375 0  0.4765625 0.0234375 0  0.484375 0.0234375 0  0.4921875 0.0234375 0  0.5 0.0234375 0  0.5078125 0.0234375 0  0.515625 0.0234375 0  0.5234375 0.0234375 0  0.53125 0.0234375 0  0.5390625 0.0234375 0  0.546875 0.0234375 0  0.5546875 0.0234375 0  0.5625 0.0234375 0  0.5703125 0.0234375 0  0.578125 0.0234375 0  0.5859375 0.0234375 0  0.59375 0.0234375 0  0.6015625 0.0234375 0  0.609375 0.0234375 0  0.6171875 0.0234375 0  0.625 0.0234375 0  0.6328125 0.0234375 0  0.640625 0.0234375 0  0.6484375 0.0234375 0  0.65625 0.0234375 0  0.6640625 0.0234375 0  0.671875 0.0234375 0  0.6796875 0.0234375 0  0.6875 0.0234375 0  0.6953125 0.0234375 0  0.703125 0.0234375 0  0.7109375 0.0234375 0  0.71875 0.0234375 0  0.7265625 0.0234375 0  0.734375 0.0234375 0  0.7421875 0.0234375 0  0.75 0.0234375 0  0.7578125 0.0234375 0  0.765625 0.0234375 0  0.7734375 0.0234375 0  0.78125 0.0234375 0  0.7890625 0.0234375 0  0.796875 0.0234375 0  0.8046875 0.0234375 0  0.8125 0.0234375 0  0.8203125 0.0234375 0  0.828125 0.0234375 0  0.8359375 0.0234375 0  0.84375 0.0234375 0  0.8515625 0.0234375 0  0.859375 0.0234375 0  0.8671
[...]
<PointData  Vectors="f_1306"> 
<DataArray  type="Float64"  Name="f_1306"  NumberOfComponents="3" format="ascii">1.0078812495255045e+00 -1.0039318096049192e+00 0.0000000000000000e+00  1.0157861824769030e+00 -1.0038705703744613e+00 0.0000000000000000e+00  1.0236906046983849e+00 -1.0036847976078072e+00 0.0000000000000000e+00  1.0315935489583394e+00 -1.0033725781670380e+00 0.0000000000000000e+00  1.0394940250545979e+00 -1.0029319710650684e+00 0.0000000000000000e+00  1.0473910246358931e+00 -1.0023610151867755e+00 0.0000000000000000e+00  1.0552835227213906e+00 -1.0016577320727762e+00 0.0000000000000000e+00  1.0631704781938203e+00 -1.0008201270678800e+00 0.0000000000000000e+00  1.0710508339378815e+00 -9.9984618986069451e-01 0.0000000000000000e+00  1.0789235168420284e+00 -9.9873389476921670e-01 0.0000000000000000e+00  1.0867874377419502e+00 -9.9748120090913583e-01 0.0000000000000000e+00  1.0946414913367979e+00 -9.9608605230328817e-01 0.0000000000000000e+00  1.1024845560916594e+00 -9.9454637795964607e-01 0.0000000000000000e+00  1.1103154941326465e+00 -9.9286009193177371e-01 0.0000000000000000e+00  1.1181331511378239e+00 -9.9102509336929745e-01 0.0000000000000000e+00  1.1259363562257227e+00 -9.8903926656274976e-01 0.0000000000000000e+00  1.1337239218424258e+00 -9.8690048098541328e-01 0.0000000000000000e+00  1.1414946436478113e+00 -9.8460659133382045e-01 0.0000000000000000e+00  1.1492473004013315e+00 -9.8215543756799817e-01 0.0000000000000000e+00  1.1569806538475587e+00 -9.7954484495217820e-01 0.0000000000000000e+00  1.1646934486016669e+00 -9.7677262409650478e-01 0.0000000000000000e+00  1.1723844120349565e+00 -9.7383657100008847e-01 0.0000000000000000e+00  1.1800522541605158e+00 -9.7073446709568856e-01 0.0000000000000000e+00  1.1876956675190762e+00 -9.6746407929622769e-01 0.0000000000000000e+00  1.1953133270651142e+00 -9.6402316004330224e-01 0.0000000000000000e+00  1.2029038900532467e+00 -9.6040944735781586e-01 0.0000000000000000e+00  1.2104659959249513e+00 -9.5662066489283915e-01 0.0000000000000000e+00  1.2179982661956481e+00 -9.5265452198879441e-01 0.0000000000000000e+00  1.2254993043421707e+00 -9.4850871373103152e-01 0.0000000000000000e+00  1.2329676956906543e+00 -9.4418092100987150e-01 0.0000000000000000e+00  1.2404020073048674e+00 -9.3966881058317453e-01 0.0000000000000000e+00  1.2478007878750128e+00 -9.3497003514149013e-01 0.0000000000000000e+00  1.2551625676070237e+00 -9.3008223337584217e-01 0.0000000000000000e+00  1.2624858581123739e+00 -9.2500303004819207e-01 0.0000000000000000e+00  1.2697691522984345e+00 -9.1973003606463810e-01 0.0000000000000000e+00  1.2770109242593912e+00 -9.1426084855138590e-01 0.0000000000000000e+00  1.2842096291677558e+00 -9.0859305093353382e-01 0.0000000000000000e+00  1.2913637031664875e+00 -9.0272421301672212e-01 0.0000000000000000e+00  1.2984715632617543e+00 -8.9665189107168397e-01 0.0000000000000000e+00  1.3055316072163525e+00 -8.9037362792173824e-01 0.0000000000000000e+00  1.3125422134438154e+00 -8.8388695303326448e-01 0.0000000000000000e+00  1.3195017409032246e+00 -8.7718938260920687e-01 0.0000000000000000e+00  1.3264085289947651e+00 -8.7027841968563513e-01 0.0000000000000000e+00  1.3332608974560334e+00 -8.6315155423141288e-01 0.0000000000000000e+00  1.3400571462591286e+00 -8.5580626325101239e-01 0.0000000000000000e+00  1.3467955555085596e+00 -8.4824001089050483e-01 0.0000000000000000e+00  1.3534743853399767e+00 -8.4045024854678219e-01 0.0000000000000000e+00  1.3600918758197760e+00 -8.3243441498003456e-01 0.0000000000000000e+00  1.3666462468455802e+00 -8.2418993642953953e-01 0.0000000000000000e+00  1.3731356980476401e+00 -8.1571422673278293e-01 0.0000000000000000e+00  1.3795584086911701e+00 -8.0700468744797349e-01 0.0000000000000000e+00  1.3859125375796535e+00 -7.9805870797997347e-01 0.0000000000000000e+00  1.3921962229591416e+00 -7.8887366570969653e-01 0.0000000000000000e+00  1.3984075824235731e+00 -7.7944692612700872e-01 0.0000000000000000e+00  1.4045447128211430e+00 -7.6977584296717327e-01 0.0000000000000000e+00  1.4106056901617485e+00 -7.5985775835088343e-01 0.0000000000000000e+00  1.4165885695255431e+00 -7.4969000292791799e-01 0.0000000000000000e+00  1.4224913849726213e+00 -7.3926989602446735e-01 0.0000000000000000e+00  1.4283121494538682e+00 -7.2859474579417027e-01 0.0000000000000000e+00  1.4340488547230024e+00 -7.1766184937289346e-01 0.0000000000000000e+00  1.4396994712498432e+00 -7.0646849303730874e-01 0.0000000000000000e+00  1.4452619481348252e+00 -6.9501195236730473e-01 0.0000000000000000e+00  1.4507342130248007e+00 -6.8328949241226655e-01 0.0000000000000000e+00  1.4561141720301509e+00 -6.7129836786128083e-01 0.0000000000000000e+00  1.4613997096432456e+00 -6.5903582321729270e-01 0.0000000000000000e+00  1.4665886886582762e+00 -6.4649909297526620e-01 0.0000000000000000e+00  1.4716789500924929e+00 -6.3368540180439326e-01 0.0000000000000000e+00  1.4766683131088887e+00 -6.2059196473437539e-01 0.0000000000000000e+00  1.4815545749403431e+00 -6.0721598734585136e-01 0.0000000000000000e+00  1.4863355108152816e+00 -5.9355466596497497e-01 0.0000000000000000e+00  1.4910088738848626e+00 -5.7960518786222526e-01 0.0000000000000000e+00  1.4955723951517377e+00 -5.6536473145546051e-01 0.0000000000000000e+00  1.5000237834004166e+00 -5.5083046651727408e-01 0.0000000000000000e+00  1.5043607251292639e+00 -5.3599955438669133e-01 0.0000000000000000e+00  1.5085808844841746e+00 -5.2086914818525110e-01 0.0000000000000000e+00  1.5126819031939502e+00 -5.0543639303751298e-01 0.0000000000000000e+00  1.5166614005074155e+00 -4.8969842629603821e-01 0.0000000000000000e+00  1.5205169731323163e+00 -4.7365237777087332e-01 0.0000000000000000e+00  1.5242461951760233e+00 -4.5729536996360065e-01 0.0000000000000000e+00  1.5278466180880887e+00 -4.4062451830597760e-01 0.0000000000000000e+00  1.5313157706046796e+00 -4.2363693140322534e-01 0.0000000000000000e+00  1.5346511586949410e+00 -4.0632971128198714e-01 0.0000000000000000e+00  1.5378502655093094e+00 -3.8869995364302612e-01 0.0000000000000000e+00  1.5409105513298269e+00 -3.7074474811868163e-01 0.0000000000000000e+00  1.5438294535224806e+00 -3.5246117853514131e-01 0.0000000000000000e+00  1.5466043864916235e+00 -3.3384632317955509e-01 0.0000000000000000e+00  1.5492327416364966e+00 -3.1489725507205324e-01 0.0000000000000000e+00  1.5517118873099025e+00 -2.9561104224269513e-01 0.0000000000000000e+00  1.5540391687790684e+00 -2.7598474801338535e-01 0.0000000000000000e+00  1.5562119081887342e+00 -2.5601543128481669e-01 0.0000000000000000e+00  1.5582274045265134e+00 -2.3570014682845539e-01 0.0000000000000000e+00  1.5600829335905593e+00 -2.1503594558363304e-01 0.0000000000000000e+00  1.5617757479595809e+00 -1.9401987495976092e-01 0.0000000000000000e+00  1.5633030769652561e+00 -1.7264897914371138e-01 0.0000000000000000e+00  1.5646621266670762e+00 -1.5092029941241294e-01 0.0000000000000000e+00  1.5658500798296688e+00 -1.2883087445067520e-01 0.0000000000000000e+00  1.5668640959026432e+00 -1.0637774067428789e-01 0.0000000000000000e+00  1.5677013110030069e+00 -8.3557932558414802e-02 0.0000000000000000e+00  1.5683588379001892e+00 -6.0368482971322385e-02 0.0000000000000000e+00  1.5688337660037310e+00 -3.6806423513453861e-02 0.0000000000000000e+00  1.5691231613536809e+00 -1.2868784861875732e-02 0.0000000000000000e+00  1.5692240666137518e+00 1.1447402879896817e-02 0.0000000000000000e+00  1.5691335010672907e+00 3.6145109826684549e-02 0.0000000000000000e+00  1.5688484606161197e+00 6.1227305951044114e-02 0.0000000000000000e+00  1.5683659177823033e+00 8.6696960717293159e-02 0.0000000000000000e+00  1.5676828217129113e+00 1.1255704271020127e-01 0.0000000000000000e+00  1.5667960981878477e+00 1.3881051925838575e-01 0.0000000000000000e+00  1.5657026496308251e+00 1.6546035605249054e-01 0.0000000000000000e+00  1.5643993551235824e+00 1.9250951675826738e-01 0.0000000000000000e+00  1.5628830704234549e+00 2.1996096262470666e-01 0.0000000000000000e+00  1.5611506279844383e+00 2.4781765208745135e-01 0.0000000000000000e+00  1.5591988369819194e+00 2.7608254036780494e-01 0.0000000000000000e+00  1.5570244833413183e+00 3.0475857906778236e-01 0.0000000000000000e+00  1.5546243297709490e+00 3.3384871576182440e-01 0.0000000000000000e+00  1.5519951157995804e+00 3.6335589358609932e-01 0.0000000000000000e+00  1.5491335578193648e+00 3.9328305082668757e-01 0.0000000000000000e+00  1.5460363491352058e+00 4.2363312050861568e-01 0.0000000000000000e+00  1.5427001600222572e+00 4.5440902998867616e-01 0.0000000000000000e+00  1.5391216377944086e+00 4.8561370055665209e-01 0.0000000000000000e+00  1.5352974068887772e+00 5.1725004705232946e-01 0.0000000000000000e+00  1.5312240689755294e+00 5.4932097751064179e-01 0.0000000000000000e+00  1.5268982031114289e+00 5.8182939285656921e-01 0.0000000000000000e+00  1.5223163659761436e+00 6.1477818668971984e-01 0.0000000000000000e+00  1.5174750922811007e+00 6.4817024523747591e-01 0.0000000000000000e+00  1.5123708955775248e+00 6.8200844764528690e-01 0.0000000000000000e+00  1.5070002700946836e+00 7.1629566699951530e-01 0.0000000000000000e+00  1.5013596955531281e+00 7.5103477310830757e-01 0.0000000000000000e+00  1.4954456515470578e+00 7.8622864001279791e-01 0.0000000000000000e+00  1.4718832813401579e+00 8.2188016781130191e-01 0.0000000000000000e+00  1.0157858545180336e+00 -1.0118057443762960e+00 0.0000000000000000e+00  1.0237528115562604e+00 -1.0117439593072108e+00 0.0000000000000000e+00  1.0317192540429405e+00 -1.0115567016814908e+00 0.0000000000000000e+00  1.0396842033186611e+00 -1.0112420188161138e+00 0.0000000000000000e+00  1.0476466616138307e+00 -1.0107979466965935e+00 0.0000000000000000e+00  1.0556056134146121e+00 -1.0102225060023524e+00 0.0000000000000000e+00  1.0635600263432101e+00 -1.0095137015885718e+00 0.0000000000000000e+00  1.0715088515892424e+00 -1.0086695226082774e+00 0.0000000000000000e+00  1.0794510240851534e+00 -1.0076879426972423e+00 0.0000000000000000e+00  1.0873854625480859e+00 -1.0065669201229714e+00 0.0000000000000000e+00  1.0953110694523158e+00 -1.0053043978947167e+00 0.0000000000000000e+00  1.1032267309646127e+00 -1.0038983038456899e+00 0.0000000000000000e+00  1.1111313168590951e+00 -1.0023465506973162e+00 0.0000000000000000e+00  1.1190236804203080e+00 -1.0006470361123165e+00 0.0000000000000000e+00  1.1269026583393109e+00 -9.9879764274103877e-01 0.0000000000000000e+00  1.1347670706054991e+00 -9.9679623826389685e-01 0.0000000000000000e+00  1.1426157203957721e+00 -9.9464067543180235e-01 0.0000000000000000e+00  1.1504473939620308e+00 -9.9232879210584313e-01 0.0000000000000000e+00  1.1582608605176359e+00 -9.8985841129707186e-01 0.0000000000000000e+00  1.1660548721232333e+00 -9.8722734120700817e-01 0.0000000000000000e+00  1.1738281635722267e+00 -9.8443337526929076e-01 0.0000000000000000e+00  1.1815794522760865e+00 -9.8147429219279725e-01 0.0000000000000000e+00  1.1893074381496409e+00 -9.7834785600647500e-01 0.0000000000000000e+00  1.1970108034964477e+00 -9.7505181610607028e-01 0.0000000000000000e+00  1.2046882128943279e+00 -9.7158390730290256e-01 0.0000000000000000e+00  1.2123383130811292e+00 -9.6794184987480647e-01 0.0000000000000000e+00  1.2199597328407594e+00 -9.6412334961933754e-01 0.0000000000000000e+00  1.2275510828895526e+00 -9.6012609790933467e-01 0.0000000000000000e+00  1.2351109557629851e+00 -9.5594777175090362e-01 0.0000000000000000e+00  1.2426379257027949e+00 -9.5158603384389762e-01 0.0000000000000000e+00  1.2501305485445233e+00 -9.4703853264494742e-01 0.0000000000000000e+00  1.2575873616055142e+00 -9.4230290243310000e-01 0.0000000000000000e+00  1.2650068835733967e+00 -9.3737676337811460e-01 0.0000000000000000e+00  1.2723876143950796e+00 -9.3225772161146758e-01 0.0000000000000000e+00  1.2797280351662823e+00 -9.2694336930011023e-01 0.0000000000000000e+00  1.2870266080216284e+00 -9.2143128472302493e-01 0.0000000000000000e+00  1.2942817760253285e+00 -9.1571903235062246e-01 0.0000000000000000e+00  1.3014919630624737e+00 -9.0980416292702448e-01 0.0000000000000000e+00  1.3086555737309720e+00 -9.0368421355527229e-01 0.0000000000000000e+00  1.3157709932341397e+00 -8.9735670778550125e-01 0.0000000000000000e+00  1.3228365872739900e+00 -8.9081915570612524e-01 0.0000000000000000e+00  1.3298507019452277e+00 -8.8406905403806879e-01 0.0000000000000000e+00  1.3368116636299849e+00 -8.7710388623208557e-01 0.0000000000000000e+00  1.3437177788933221e+00 -8.6992112256920995e-01 0.0000000000000000e+00  1.3505673343795144e+00 -8.6251822026437419e-01 0.0000000000000000e+00  1.3573585967091559e+00 -8.5489262357323514e-01 0.0000000000000000e+00  1.3640898123771033e+00 -8.4704176390225105e-01 0.0000000000000000e+00  1.3707592076512878e+00 -8.3896305992204490e-01 0.0000000000000000e+00  1.3773649884724208e+00 -8.3065391768410146e-01 0.0000000000000000e+00  1.3839053403546169e+00 -8.2211173074082744e-01 0.0000000000000000e+00  1.3903784282869696e+00 -8.1333388026902842e-01 0.0000000000000000e+00  1.3967823966360968e+00 -8.0431773519683147e-01 0.0000000000000000e+00  1.4031153690496891e+00 -7.9506065233409950e-01 0.0000000000000000e+00  1.4093754483610912e+00 -7.8555997650637910e-01 0.0000000000000000e+00  1.4155607164949382e+00 -7.7581304069242130e-01 0.0000000000000000e+00  1.4216692343738788e+00 -7.6581716616531315e-01 0.0000000000000000e+00  1.4276990418264162e+00 -7.5556966263726810e-01 0.0000000000000000e+00  1.4336481574958890e+00 -7.4506782840810959e-01 0.0000000000000000e+00  1.4395145787506289e+00 -7.3430895051749645e-01 0.0000000000000000e+00  1.4452962815953203e+00 -7.2329030490092383e-01 0.0000000000000000e+00  1.4509912205835938e+00 -7.1200915654954788e-01 0.0000000000000000e+00  1.4565973287318807e+00 -7.0046275967387439e-01 0.0000000000000000e+00  1.4621125174345639e+00 -6.8864835787135092e-01 0.0000000000000000e+00  1.4675346763804529e+00 -6.7656318429790896e-01 0.0000000000000000e+00  1.4728616734706135e+00 -6.6420446184349313e-01 0.0000000000000000e+00  1.4780913547375860e+00 -6.5156940331162672e-01 0.0000000000000000e+00  1.4832215442660228e+00 -6.3865521160304861e-01 0.0000000000000000e+00  1.4882500441147768e+00 -6.2545907990347027e-01 0.0000000000000000e+00  1.4931746342404733e+00 -6.1197819187549229e-01 0.0000000000000000e+00  1.4979930724226009e+00 -5.9820972185472387e-01 0.0000000000000000e+00  1.5027030941901496e+00 -5.8415083505014920e-01 0.0000000000000000e+00  1.5073024127498331e+00 -5.6979868774878328e-01 0.0000000000000000e+00  1.5117887189159309e+00 -5.5515042752465926e-01 0.0000000000000000e+00  1.5161596810417768e+00 -5.4020319345219070e-01 0.0000000000000000e+00  1.5204129449529384e+00 -5.2495411632395328e-01 0.0000000000000000e+00  1.5245461338821151e+00 -5.0940031887292714e-01 0.0000000000000000e+00  1.5285568484057919e+00 -4.9353891599924532e-01 0.0000000000000000e+00  1.5324426663826853e+00 -4.7736701500148720e-01 0.0000000000000000e+00  1.5362011428940188e+00 -4.6088171581256643e-01 0.0000000000000000e+00  1.5398298101856589e+00 -4.4408011124024921e-01 0.0000000000000000e+00  1.5433261776121538e+00 -4.2695928721235304e-01 0.0000000000000000e+00  1.5466877315827117e+00 -4.0951632302666197e-01 0.0000000000000000e+00  1.5499119355091504e+00 -3.9174829160560609e-01 0.0000000000000000e+00  1.5529962297558630e+00 -3.7365225975574629e-01 0.0000000000000000e+00  1.5559380315918352e+00 -3.5522528843210660e-01 0.0000000000000000e+00  1.5587347351447516e+00 -3.3646443300739459e-01 0.0000000000000000e+00  1.5613837113572320e+00 -3.1736674354615546e-01 0.0000000000000000e+00  1.5638823079452402e+00 -2.9792926508389944e-01 0.0000000000000000e+00  1.5662278493586947e+00 -2.7814903791124146e-01 0.0000000000000000e+00  1.5684176367443388e+00 -2.5802309786309802e-01 0.0000000000000000e+00  1.5704489479108967e+00 -2.3754847661297751e-01 0.0000000000000000e+00  1.5723190372965654e+00 -2.1672220197240652e-01 0.0000000000000000e+00  1.5740251359388824e+00 -1.9554129819552934e-01 0.0000000000000000e+00  1.5755644514470135e+00 -1.7400278628891588e-01 0.0000000000000000e+00  1.5769341679765063e+00 -1.5210368432661903e-01 0.0000000000000000e+00  1.5781314462065523e+00 -1.2984100777051166e-01 0.0000000000000000e+00  1.5791534233198052e+00 -1.0721176979594023e-01 0.0000000000000000e+00  1.5799972129848072e+00 -8.4212981622720853e-02 0.0000000000000000e+00  1.5806599053410673e+00 -6.0841652851511559e-02 0.0000000000000000e+00  1.5811385669868461e+00 -3.7094791805580847e-02 0.0000000000000000e+00  1.5814302409697054e+00 -1.2969405877995657e-02 0.0000000000000000e+00  1.5815319467798736e+00 1.1537498115757999e-02 0.0000000000000000e+00  1.5814406803464960e+00 3.6428913579712660e-02 0.0000000000000000e+00  1.5811534140368302e+00 6.1707833773915373e-02 0.0000000000000000e+00  1.5806670966584717e+00 8.7377251445491175e-02 0.0000000000000000e+00  1.5799786534646809e+00 1.1344015845430268e-01 0.0000000000000000e+00  1.5790849861629217e+00 1.3989954539324317e-01 0.0000000000000000e+00  1.5779829729267127e+00 1.6675840120323482e-01 0.0000000000000000e+00  1.5766694684109415e+00 1.9401971278302804e-01 0.0000000000000000e+00  1.5751413037708037e+00 2.2168646459394217e-01 0.0000000000000000e+00  1.5733952866845957e+00 2.4976163825974629e-01 0.0000000000000000e+00  1.5714282013806404e+00 2.7824821216195667e-01 0.0000000000000000e+00  1.5692368086687543e+00 3.0714916103093720e-01 0.0000000000000000e+00  1.5668178459767914e+00 3.3646745553334556e-01 0.0000000000000000e+00  1.5641680273930700e+00 3.6620606185669180e-01 0.0000000000000000e+00  1.5612840437158537e+00 3.9636794129209679e-01 0.0000000000000000e+00  1.5581625625116886e+00 4.2695604981683266e-01 0.0000000000000000e+00  1.5548002281854487e+00 4.5797333767894804e-01 0.0000000000000000e+00  1.5511936620667262e+00 4.8942274898743027e-01 0.0000000000000000e+00  1.5473394625204504e+00 5.2130722131311991e-01 0.0000000000000000e+00  1.5432342050955432e+00 5.5362968530842327e-01 0.0000000000000000e+00  1.5388744427368670e+00 5.8639306435833893e-01 0.0000000000000000e+00  1.5342567061083350e+00 6.1960027428209596e-01 0.0000000000000000e+00  1.5293775041208173e+00 6.5325422311347348e-01 0.0000000000000000e+00  1.5242333248502615e+00 6.8735781099159521e-01 0.0000000000000000e+00  1.5188206372003541e+00 7.2191393015252470e-01 0.0000000000000000e+00  1.5131358938684012e+00 7.5692546473425193e-01 0.0000000000000000e+00  1.5071755357186358e+00 7.9239528872248621e-01 0.0000000000000000e+00  1.4834285813222110e+00 8.2832625385949765e-01 0.0000000000000000e+00  1.0237524951818531e+00 -1.0197414351834815e+00 0.0000000000000000e+00  1.0317819496920571e+00 -1.0196791248311625e+00 0.0000000000000000e+00  1.0398108895434732e+00 -1.0194903708899508e+00 0.0000000000000000e+00  1.0478383245883511e+00 -1.0191732016270250e+00 0.0000000000000000e+00  1.0558632479437848e+00 -1.0187256338603168e+00 0.0000000000000000e+00  1.0638846358721938e+00 -1.0181456704681586e+00 0.0000000000000000e+00  1.0719014479855864e+00 -1.0174312993854318e+00 0.0000000000000000e+00  1.0799126274222637e+00 -1.0165804932767728e+00 0.0000000000000000e+00  1.0879171009368249e+00 -1.0155912094655264e+00 0.0000000000000000e+00  1.0959137789180444e+00 -1.0144613899492070e+00 0.0000000000000000e+00  1.1039015553578964e+00 -1.0131889614400864e+00 0.0000000000000000e+00  1.1118793077895051e+00 -1.0117718354103535e+00 0.0000000000000000e+00  1.1198458972056566e+00 -1.0102079081358724e+00 0.0000000000000000e+00  1.1278001679650940e+00 -1.0084950607375049e+00 0.0000000000000000e+00  1.1357409476910481e+00 -1.0066311592204653e+00 0.0000000000000000e+00  1.1436670471647705e+00 -1.0046140545125104e+00 0.0000000000000000e+00  1.1515772602158094e+00 -1.0024415825017312e+00 0.0000000000000000e+00  1.1594703636101458e+00 -1.0001115640745810e+00 0.0000000000000000e+00  1.1673451169369342e+00 -9.9762180515463605e-01 0.0000000000000000e+00  1.1752002624943432e+00 -9.9497009674248460e-01 0.0000000000000000e+00  1.1830345251748380e+00 -9.9215421495703993e-01 0.0000000000000000e+00  1.1908466123501471e+00 -9.8917192107851737e-01 0.0000000000000000e+00  1.1986352137560941e+00 -9.8602096159326069e-01 0.000000000000000