<?xml version="1.0"?>
<VTKFile type="UnstructuredGrid"  version="0.1"  >
<UnstructuredGrid>
<Piece  NumberOfPoints="1089" NumberOfCells="2048">
<Points>
<DataArray  type="Float64"  NumberOfComponents="3"  format="ascii">0 0 0  0.03125 0 0  0.0625 0 0  0.09375 0 0  0.125 0 0  0.15625 0 0  0.1875 0 0  0.21875 0 0  0.25 0 0  0.28125 0 0  0.3125 0 0  0.34375 0 0  0.375 0 0  0.40625 0 0  0.4375 0 0  0.46875 0 0  0.5 0 0  0.53125 0 0  0.5625 0 0  0.59375 0 0  0.625 0 0  0.65625 0 0  0.6875 0 0  0.71875 0 0  0.75 0 0  0.78125 0 0  0.8125 0 0  0.84375 0 0  0.875 0 0  0.90625 0 0  0.9375 0 0  0.96875 0 0  1 0 0  0 0.03125 0  0.03125 0.03125 0  0.0625 0.03125 0  0.09375 0.03125 0  0.125 0.03125 0  0.15625 0.03125 0  0.1875 0.03125 0  0.21875 0.03125 0  0.25 0.03125 0  0.28125 0.03125 0  0.3125 0.03125 0  0.34375 0.03125 0  0.375 0.03125 0  0.40625 0.03125 0  0.4375 0.03125 0  0.46875 0.03125 0  0.5 0.03125 0  0.53125 0.03125 0  0.5625 0.03125 0  0.59375 0.03125 0  0.625 0.03125 0  0.65625 0.03125 0  0.6875 0.03125 0  0.71875 0.03125 0  0.75 0.03125 0  0.78125 0.03125 0  0.8125 0.03125 0  0.84375 0.03125 0  0.875 0.03125 0  0.90625 0.03125 0  0.9375 0.03125 0  0.96875 0.03125 0  1 0.03125 0  0 0.0625 0  0.03125 0.0625 0  0.0625 0.0625 0  0.09375 0.0625 0  0.125 0.0625 0  0.15625 0.0625 0  0.1875 0.0625 0  0.21875 0.0625 0  0.25 0.0625 0  0.28125 0.0625 0  0.3125 0.0625 0  0.34375 0.0625 0  0.375 0.0625 0  0.40625 0.0625 0  0.4375 0.0625 0  0.46875 0.0625 0  0.5 0.0625 0  0.53125 0.0625 0  0.5625 0.0625 0  0.59375 0.0625 0  0.625 0.0625 0  0.65625 0.0625 0  0.6875 0.0625 0  0.71875 0.0625 0  0.75 0.0625 0  0.78125 0.0625 0  0.8125 0.0625 0  0.84375 0.0625 0  0.875 0.0625 0  0.90625 0.0625 0  0.9375 0.0625 0  0.96875 0.0625 0  1 0.0625 0  0 0.09375 0  0.03125 0.09375 0  0.0625 0.09375 0  0.09375 0.09375 0  0.125 0.09375 0  0.15625 0.09375 0  0.1875 0.09375 0  0.21875 0.09375 0  0.25 0.09375 0  0.28125 0.09375 0  0.3125 0.09375 0  0.34375 0.09375 0  0.375 0.09375 0  0.40625 0.09375 0  0.4375 0.09375 0  0.46875 0.09375 0  0.5 0.09375 0  0.53125 0.09375 0  0.5625 0.09375 0  0.59375 0.09375 0  0.625 0.09375 0  0.65625 0.09375 0  0.6875 0.09375 0  0.71875 0.09375 0  0.75 0.09375 0  0.78125 0.09375 0  0.8125 0.09375 0  0.84375 0.09375 0  0.875 0.09375 0  0.90625 0.09375 0  0.9375 0.09375 0  0.96875 0.09375 0  1 0.09375 0  0 0.125 0  0.03125 0.125 0  0.0625 0.125 0  0.09375 0.125 0  0.125 0.125 0  0.15625 0.125 0  0.1875 0.125 0  0.21875 0.125 0  0.25 0.125 0  0.28125 0.125 0  0.3125 0.125 0  0.34375 0.125 0  0.375 0.125 0  0.40625 0.125 0  0.4375 0.125 0  0.46875 0.125 0  0.5 0.125 0  0.53125 0.125 0  0.5625 0.125 0  0.59375 0.125 0  0.625 0.125 0  0.65625 0.125 0  0.6875 0.125 0  0.71875 0.125 0  0.75 0.125 0  0.78125 0.125 0  0.8125 0.125 0  0.84375 0.125 0  0.875 0.125 0  0.90625 0.125 0  0.9375 0.125 0  0.96875 0.125 0  1 0.125 0  0 0.15625 0  0.03125 0.15625 0  0.0625 0.15625 0  0.09375 0.15625 0  0.125 0.15625 0  0.15625 0.15625 0  0.1875 0.15625 0  0.21875 0.15625 0  0.25 0.15625 0  0.28125 0.15625 0  0.3125 0.15625 0  0.34375 0.15625 0  0.375 0.15625 0  0.40625 0.15625 0  0.4375 0.15625 0  0.46875 0.15625 0  0.5 0.15625 0  0.53125 0.15625 0  0.5625 0.15625 0  0.59375 0.15625 0  0.625 0.15625 0  0.65625 0.15625 0  0.6875 0.15625 0  0.71875 0.15625 0  0.75 0.15625 0  0.78125 0.15625 0  0.8125 0.15625 0  0.84375 0.15625 0  0.875 0.15625 0  0.90625 0.15625 0  0.9375 0.15625 0  0.96875 0.15625 0  1 0.15625 0  0 0.1875 0  0.03125 0.1875 0  0.0625 0.1875 0  0.09375 0.1875 0  0.125 0.1875 0  0.15625 0.1875 0  0.1875 0.1875 0  0.21875 0.1875 0  0.25 0.1875 0  0.28125 0.1875 0  0.3125 0.1875 0  0.34375 0.1875 0  0.375 0.1875 0  0.40625 0.1875 0  0.4375 0.1875 0  0.46875 0.1875 0  0.5 0.1875 0  0.53125 0.1875 0  0.5625 0.1875 0  0.59375 0.1875 0  0.625 0.1875 0  0.65625 0.1875 0  0.6875 0.1875 0  0.71875 0.1875 0  0.75 0.1875 0  0.78125 0.1875 0  0.8125 0.1875 0  0.84375 0.1875 0  0.875 0.1875 0  0.90625 0.1875 0  0.9375 0.1875 0  0.96875 0.1875 0  1 0.1875 0  0 0.21875 0  0.03125 0.21875 0  0.0625 0.21875 0  0.09375 0.21875 0  0.125 0.21875 0  0.15625 0.21875 0  0.1875 0.21875 0  0.21875 0.21875 0  0.25 0.21875 0  0.28125 0.21875 0  0.3125 0.21875 0  0.34375 0.21875 0  0.375 0.21875 0  0.40625 0.21875 0  0.4375 0.21875 0  0.46875 0.21875 0  0.5 0.21875 0  0.53125 0.21875 0  0.5625 0.21875 0  0.59375 0.21875 0  0.625 0.21875 0  0.65625 0.21875 0  0.6875 0.21875 0  0.71875 0.21875 0  0.75 0.21875 0  0.78125 0.21875 0  0.8125 0.21875 0  0.84375 0.21875 0  0.875 0.21875 0  0.90625 0.21875 0  0.9375 0.21875 0  0.96875 0.21875 0  1 0.21875 0  0 0.25 0  0.03125 0.25 0  0.0625 0.25 0  0.09375 0.25 0  0.125 0.25 0  0.15625 0.25 0  0.1875 0.25 0  0.21875 0.25 0  0.25 0.25 0  0.28125 0.25 0  0.3125 0.25 0  0.34375 0.25 0  0.375 0.25 0  0.40625 0.25 0  0.4375 0.25 0  0.46875 0.25 0  0.5 0.25 0  0.53125 0.25 0  0.5625 0.25 0  0.59375 0.25 0  0.625 0.25 0  0.65625 0.25 0  0.6875 0.25 0  0.71875 0.25 0  0.75 0.25 0  0.78125 0.25 0  0.8125 0.25 0  0.84375 0.25 0  0.875 0.25 0  0.90625 0.25 0  0.9375 0.25 0  0.96875 0.25 0  1 0.25 0  0 0.28125 0  0.03125 0.28125 0  0.0625 0.28125 0  0.09375 0.28125 0  0.125 0.28125 0  0.15625 0.28125 0  0.1875 0.28125 0  0.21875 0.28125 0  0.25 0.28125 0  0.28125 0.28125 0  0.3125 0.28125 0  0.34375 0.28125 0  0.375 0.28125 0  0.40625 0.28125 0  0.4375 0.28125 0  0.46875 0.28125 0  0.5 0.28125 0  0.53125 0.28125 0  0.5625 0.28125 0  0.59375 0.28125 0  0.625 0.28125 0  0.65625 0.28125 0  0.6875 0.28125 0  0.71875 0.28125 0  0.75 0.28125 0  0.78125 0.28125 0  0.8125 0.28125 0  0.84375 0.28125 0  0.875 0.28125 0  0.90625 0.28125 0  0.9375 0.28125 0  0.96875 0.28125 0  1 0.28125 0  0 0.3125 0  0.03125 0.3125 0  0.0625 0.3125 0  0.09375 0.3125 0  0.125 0.3125 0  0.15625 0.3125 0  0.1875 0.3125 0  0.21875 0.3125 0  0.25 0.3125 0  0.28125 0.3125 0  0.3125 0.3125 0  0.34375 0.3125 0  0.375 0.3125 0  0.40625 0.3125 0  0.4375 0.3125 0  0.46875 0.3125 0  0.5 0.3125 0  0.53125 0.3125 0  0.5625 0.3125 0  0.59375 0.3125 0  0.625 0.3125 0  0.65625 0.3125 0  0.6875 0.3125 0  0.71875 0.3125 0  0.75 0.3125 0  0.78125 0.3125 0  0.8125 0.3125 0  0.84375 0.3125 0  0.875 0.3125 0  0.90625 0.3125 0  0.9375 0.3125 0  0.96875 0.3125 0  1 0.3125 0  0 0.34375 0  0.03125 0.34375 0  0.0625 0.34375 0  0.09375 0.34375 0  0.125 0.34375 0  0.15625 0.34375 0  0.1875 0.34375 0  0.21875 0.34375 0  0.25 0.34375 0  0.28125 0.34375 0  0.3125 0.34375 0  0.34375 0.34375 0  0.375 0.34375 0  0.40625 0.34375 0  0.4375 0.34375 0  0.46875 0.34375 0  0.5 0.34375 0  0.53125 0.34375 0  0.5625 0.34375 0  0.59375 0.34375 0  0.625 0.34375 0  0.65625 0.34375 0  0.6875 0.34375 0  0.71875 0.34375 0  0.75 0.34375 0  0.78125 0.34375 0  0.8125 0.34375 0  0.84375 0.34375 0  0.875 0.34375 0  0.90625 0.34375 0  0.9375 0.34375 0  0.96875 0.34375 0  1 0.34375 0  0 0.375 0  0.03125 0.375 0  0.0625 0.375 0  0.09375 0.375 0  0.125 0.375 0  0.15625 0.375 0  0.1875 0.375 0  0.21875 0.375 0  0.25 0.375 0  0.28125 0.375 0  0.3125 0.375 0  0.34375 0.375 0  0.375 0.375 0  0.40625 0.375 0  0.4375 0.375 0  0.46875 0.375 0  0.5 0.375 0  0.53125 0.375 0  0.5625 0.375 0  0.59375 0.375 0  0.625 0.375 0  0.65625 0.375 0  0.6875 0.375 0  0.71875 0.375 0  0.75 0.375 0  0.78125 0.375 0  0.8125 0.375 0  0.84375 0.375 0  0.875 0.375 0  0.90625 0.375 0  0.9375 0.375 0  0.96875 0.375 0  1 0.375 0  0 0.40625 0  0.03125 0.40625 0  0.0625 0.40625 0  0.09375 0.40625 0  0.125 0.40625 0  0.15625 0.40625 0  0.1875 0.40625 0  0.21875 0.40625 0  0.25 0.40625 0  0.28125 0.40625 0  0.3125 0.40625 0  0.34375 0.40625 0  0.375 0.40625 0  0.40625 0.40625 0  0.4375 0.40625 0  0.46875 0.40625 0  0.5 0.40625 0  0.53125 0.40625 0  0.5625 0.40625 0  0.59375 0.40625 0  0.625 0.40625 0  0.65625 0.40625 0  0.6875 0.40625 0  0.71875 0.40625 0  0.75 0.40625 0  0.78125 0.40625 0  0.8125 0.40625 0  0.84375 0.40625 0  0.875 0.40625 0  0.90625 0.40625 0  0.9375 0.40625 0  0.96875 0.40625 0  1 0.40625 0  0 0.4375 0  0.03125 0.4375 0  0.0625 0.4375 0  0.09375 0.4375 0  0.125 0.4375 0  0.15625 0.4375 0  0.1875 0.4375 0  0.21875 0.4375 0  0.25 0.4375 0  0.28125 0.4375 0  0.3125 0.4375 0  0.34375 0.4375 0  0.375 0.4375 0  0.40625 0.4375 0  0.4375 0.4375 0  0.46875 0.4375 0  0.5 0.4375 0  0.53125 0.4375 0  0.5625 0.4375 0  0.59375 0.4375 0  0.625 0.4375 0  0.65625 0.4375 0  0.6875 0.4375 0  0.71875 0.4375 0  0.75 0.4375 0  0.78125 0.4375 0  0.8125 0.4375 0  0.84375 0.4375 0  0.875 0.4375 0  0.90625 0.4375 0  0.9375 0.4375 0  0.96875 0.4375 0  1 0.4375 0  0 0.46875 0  0.03125 0.46875 0  0.0625 0.46875 0  0.09375 0.46875 0  0.125 0.46875 0  0.15625 0.46875 0  0.1875 0.46875 0  0.21875 0.46875 0  0.25 0.46875 0  0.28125 0.46875 0  0.3125 0.46875 0  0.34375 0.46875 0  0.375 0.46875 0  0.40625 0.46875 0  0.4375 0.46875 0  0.46875 0.46875 0  0.5 0.46875 0  0.53125 0.46875 0  0.5625 0.46875 0  0.59375 0.46875 0  0.625 0.46875 0  0.65625 0.46875 0  0.6875 0.46875 0  0.71875 0.46875 0  0.75 0.46875 0  0.78125 0.46875 0  0.8125 0.46875 0  0.84375 0.46875 0  0.875 0.46875 0  0.90625 0.46875 0  0.9375 0.46875 0  0.96875 0.46875 0  1 0.46875 0  0 0.5 0  0.03125 0.5 0  0.0625 0.5 0  0.09375 0.5 0  0.125 0.5 0  0.15625 0.5 0  0.1875 0.5 0  0.21875 0.5 0  0.25 0.5 0  0.28125 0.5 0  0.3125 0.5 0  0.34375 0.5 0  0.375 0.5 0  0.40625 0.5 0  0.4375 0.5 0  0.46875 0.5 0  0.5 0.5 0  0.53125 0.5 0  0.5625 0.5 0  0.59375 0.5 0  0.625 0.5 0  0.65625 0.5 0  0.6875 0.5 0  0.71875 0.5 0  0.75 0.5 0  0.78125 0.5 0  0.8125 0.5 0  0.84375 0.5 0  0.875 0.5 0  0.90625 0.5 0  0.9375 0.5 0  0.96875 0.5 0  1 0.5 0  0 0.53125 0  0.03125 0.53125 0  0.0625 0.53125 0  0.09375 0.53125 0  0.125 0.53125 0  0.15625 0.53125 0  0.1875 0.53125 0  0.21875 0.53125 0  0.25 0.53125 0  0.28125 0.53125 0  0.3125 0.53125 0  0.34375 0.53125 0  0.375 0.53125 0  0.40625 0.53125 0  0.4375 0.53125 0  0.46875 0.53125 0  0.5 0.53125 0  0.53125 0.53125 0  0.5625 0.53125 0  0.59375 0.53125 0  0.625 0.53125 0  0.65625 0.53125 0  0.6875 0.53125 0  0.71875 0.53125 0  0.75 0.53125 0  0.78125 0.531
[...]
<PointData  Vectors="f_509"> 
<DataArray  type="Float64"  Name="f_509"  NumberOfComponents="3" format="ascii">1.0320532081998908e+00 -1.0157477085866857e+00 0.0000000000000000e+00  1.0648160057068283e+00 -1.0147654438138125e+00 0.0000000000000000e+00  1.0975442801602395e+00 -1.0116690652561682e+00 0.0000000000000000e+00  1.1301707520572413e+00 -1.0063301019733999e+00 0.0000000000000000e+00  1.1626234616299371e+00 -9.9861542536983672e-01 0.0000000000000000e+00  1.1948259602047271e+00 -9.8838776578802268e-01 0.0000000000000000e+00  1.2266972909541531e+00 -9.7550592181391671e-01 0.0000000000000000e+00  1.2581519050106691e+00 -9.5982487385553084e-01 0.0000000000000000e+00  1.2890995562677534e+00 -9.4119586794786558e-01 0.0000000000000000e+00  1.3194451891273966e+00 -9.1946649277407644e-01 0.0000000000000000e+00  1.3490888245197723e+00 -8.9448075903395075e-01 0.0000000000000000e+00  1.3779254465160180e+00 -8.6607918538308926e-01 0.0000000000000000e+00  1.4058448907534000e+00 -8.3409889328186193e-01 0.0000000000000000e+00  1.4327317354592011e+00 -7.9837371232655985e-01 0.0000000000000000e+00  1.4584651956831611e+00 -7.5873429731516617e-01 0.0000000000000000e+00  1.4829190212790659e+00 -7.1500825816840441e-01 0.0000000000000000e+00  1.5059613991555962e+00 -6.6702030377433041e-01 0.0000000000000000e+00  1.5274548603209324e+00 -6.1459240080186683e-01 0.0000000000000000e+00  1.5472561922642729e+00 -5.5754394850988187e-01 0.0000000000000000e+00  1.5652163572471618e+00 -4.9569197054954711e-01 0.0000000000000000e+00  1.5811804171189878e+00 -4.2885132470859638e-01 0.0000000000000000e+00  1.5949874653298790e+00 -3.5683493146665041e-01 0.0000000000000000e+00  1.6064705669034487e+00 -2.7945402210630088e-01 0.0000000000000000e+00  1.6154567072819799e+00 -1.9651840692860514e-01 0.0000000000000000e+00  1.6217667512344496e+00 -1.0783676379856991e-01 0.0000000000000000e+00  1.6252154135870163e+00 -1.3216946676631355e-02 0.0000000000000000e+00  1.6256112448134108e+00 8.7533687304404237e-02 0.0000000000000000e+00  1.6227566376678653e+00 1.9460793596334483e-01 0.0000000000000000e+00  1.6164478695670659e+00 3.0819840449312236e-01 0.0000000000000000e+00  1.6064752206465673e+00 4.2849717500665419e-01 0.0000000000000000e+00  1.5926232896278771e+00 5.5569555435385998e-01 0.0000000000000000e+00  1.5746719224530201e+00 6.8998408120554922e-01 0.0000000000000000e+00  1.4809318485658227e+00 8.3155338759083741e-01 0.0000000000000000e+00  1.0647951354072278e+00 -1.0479910020166328e+00 0.0000000000000000e+00  1.0985996934084166e+00 -1.0469723686901173e+00 0.0000000000000000e+00  1.1323686874265362e+00 -1.0437750027029322e+00 0.0000000000000000e+00  1.1660324263730586e+00 -1.0382647598621779e+00 0.0000000000000000e+00  1.1995166672584672e+00 -1.0303037808727684e+00 0.0000000000000000e+00  1.2327425802486047e+00 -1.0197502590030327e+00 0.0000000000000000e+00  1.2656266836460175e+00 -1.0064584387152760e+00 0.0000000000000000e+00  1.2980807512693087e+00 -9.9027866470976544e-01 0.0000000000000000e+00  1.3300117048882858e+00 -9.7105744456497689e-01 0.0000000000000000e+00  1.3613214998658911e+00 -9.4863751892686299e-01 0.0000000000000000e+00  1.3919070084613179e+00 -9.2285793944952133e-01 0.0000000000000000e+00  1.4216599032438131e+00 -8.9355415570572871e-01 0.0000000000000000e+00  1.4504665420794409e+00 -8.6055811230277690e-01 0.0000000000000000e+00  1.4782078556763945e+00 -8.2369835733806129e-01 0.0000000000000000e+00  1.5047592384446302e+00 -7.8280016326257285e-01 0.0000000000000000e+00  1.5299904433168814e+00 -7.3768566119363232e-01 0.0000000000000000e+00  1.5537654811306982e+00 -6.8817398971297561e-01 0.0000000000000000e+00  1.5759425251576848e+00 -6.3408145918690595e-01 0.0000000000000000e+00  1.5963738213735530e+00 -5.7522173264048215e-01 0.0000000000000000e+00  1.6149056050877011e+00 -5.1140602420023196e-01 0.0000000000000000e+00  1.6313780245951315e+00 -4.4244331608368148e-01 0.0000000000000000e+00  1.6456250725856654e+00 -3.6814059505409041e-01 0.0000000000000000e+00  1.6574745261642485e+00 -2.8830310916847762e-01 0.0000000000000000e+00  1.6667478965404823e+00 -2.0273464551608888e-01 0.0000000000000000e+00  1.6732603898142104e+00 -1.1123782945700579e-01 0.0000000000000000e+00  1.6768208809815401e+00 -1.3614445602267810e-02 0.0000000000000000e+00  1.6772319046589443e+00 9.0334219591831466e-02 0.0000000000000000e+00  1.6742896687942077e+00 2.0080701414928101e-01 0.0000000000000000e+00  1.6677841031701661e+00 3.1800253628680353e-01 0.0000000000000000e+00  1.6574989645909550e+00 4.4211872674582231e-01 0.0000000000000000e+00  1.6432120322264079e+00 5.7335241612765142e-01 0.0000000000000000e+00  1.6246953941263185e+00 7.1189871617658418e-01 0.0000000000000000e+00  1.5279944179589886e+00 8.5794972563039296e-01 0.0000000000000000e+00  1.0985797531670012e+00 -1.0812578074490395e+00 0.0000000000000000e+00  1.1334582852955397e+00 -1.0802033773720372e+00 0.0000000000000000e+00  1.1683004283674550e+00 -1.0769018907690746e+00 0.0000000000000000e+00  1.2030340105834618e+00 -1.0712147268142596e+00 0.0000000000000000e+00  1.2375823356973481e+00 -1.0629994213032392e+00 0.0000000000000000e+00  1.2718640483059236e+00 -1.0521095302122137e+00 0.0000000000000000e+00  1.3057930209116260e+00 -1.0383945981697678e+00 0.0000000000000000e+00  1.3392782404038575e+00 -1.0217001800165768e+00 0.0000000000000000e+00  1.3722236904796159e+00 -1.0018678886659973e+00 0.0000000000000000e+00  1.4045282312665608e+00 -9.7873545874070200e-01 0.0000000000000000e+00  1.4360854780148575e+00 -9.5213682248335496e-01 0.0000000000000000e+00  1.4667836804038350e+00 -9.2190219715536392e-01 0.0000000000000000e+00  1.4965056036437763e+00 -8.8785818417002915e-01 0.0000000000000000e+00  1.5251284122971307e+00 -8.4982788061335757e-01 0.0000000000000000e+00  1.5525235575889300e+00 -8.0763100398459131e-01 0.0000000000000000e+00  1.5785566688900978e+00 -7.6108403108065192e-01 0.0000000000000000e+00  1.6030874500139844e+00 -7.1000035200352840e-01 0.0000000000000000e+00  1.6259695809510002e+00 -6.5419044030294293e-01 0.0000000000000000e+00  1.6470506256694779e+00 -5.9346204028270977e-01 0.0000000000000000e+00  1.6661719466325886e+00 -5.2762037249932991e-01 0.0000000000000000e+00  1.6831686267208554e+00 -4.5646835846518119e-01 0.0000000000000000e+00  1.6978693993176981e+00 -3.7980686553855270e-01 0.0000000000000000e+00  1.7100965874234291e+00 -2.9743497294144039e-01 0.0000000000000000e+00  1.7196660528385124e+00 -2.0915025980412658e-01 0.0000000000000000e+00  1.7263871567411075e+00 -1.1474911611664719e-01 0.0000000000000000e+00  1.7300627334424943e+00 -1.4027077533541680e-02 0.0000000000000000e+00  1.7304890798116910e+00 9.3220814707807617e-02 0.0000000000000000e+00  1.7274559638023521e+00 2.0719962649997584e-01 0.0000000000000000e+00  1.7207466561568365e+00 3.2811411111178496e-01 0.0000000000000000e+00  1.7101379871011824e+00 4.5616824413068296e-01 0.0000000000000000e+00  1.6954004149647122e+00 5.9156468028918485e-01 0.0000000000000000e+00  1.6762980384726971e+00 7.3450405342796854e-01 0.0000000000000000e+00  1.5765374225031232e+00 8.8518397338482169e-01 0.0000000000000000e+00  1.1334394516445261e+00 -1.1155806146424807e+00 0.0000000000000000e+00  1.1694257045838214e+00 -1.1144901065957142e+00 0.0000000000000000e+00  1.2053746947221993e+00 -1.1110815131574119e+00 0.0000000000000000e+00  1.2412117945746060e+00 -1.1052118616768820e+00 0.0000000000000000e+00  1.2768577790971969e+00 -1.0967341081670288e+00 0.0000000000000000e+00  1.3122286656519628e+00 -1.0854970968159980e+00 0.0000000000000000e+00  1.3472355757541858e+00 -1.0713455502245535e+00 0.0000000000000000e+00  1.3817846045417523e+00 -1.0541200905272423e+00 0.0000000000000000e+00  1.4157766923424155e+00 -1.0336572833792499e+00 0.0000000000000000e+00  1.4491074968784501e+00 -1.0097896990541841e+00 0.0000000000000000e+00  1.4816672662854997e+00 -9.8234598774270665e-01 0.0000000000000000e+00  1.5133407136256163e+00 -9.5115096794743714e-01 0.0000000000000000e+00  1.5440068936707427e+00 -9.1602572785175929e-01 0.0000000000000000e+00  1.5735390827078382e+00 -8.7678774005602045e-01 0.0000000000000000e+00  1.6018046620719730e+00 -8.3325099035304662e-01 0.0000000000000000e+00  1.6286650060776422e+00 -7.8522612137395698e-01 0.0000000000000000e+00  1.6539753749972874e+00 -7.3252059203184305e-01 0.0000000000000000e+00  1.6775848137282690e+00 -6.7493885375058826e-01 0.0000000000000000e+00  1.6993360567940212e+00 -6.1228254450160879e-01 0.0000000000000000e+00  1.7190654403419181e+00 -5.4435070168825395e-01 0.0000000000000000e+00  1.7366028218308482e+00 -4.7093999492208394e-01 0.0000000000000000e+00  1.7517715081498300e+00 -3.9184497973237936e-01 0.0000000000000000e+00  1.7643881929795417e+00 -3.0685837325189996e-01 0.0000000000000000e+00  1.7742629043077833e+00 -2.1577135294822100e-01 0.0000000000000000e+00  1.7811989631364429e+00 -1.1837387956206176e-01 0.0000000000000000e+00  1.7849929545478516e+00 -1.4455045655280409e-02 0.0000000000000000e+00  1.7854347123304140e+00 9.6196548268063356e-02 0.0000000000000000e+00  1.7823073179776703e+00 2.1379238688308944e-01 0.0000000000000000e+00  1.7753871131991812e+00 3.3854359670817197e-01 0.0000000000000000e+00  1.7644437200203384e+00 4.7066045587389949e-01 0.0000000000000000e+00  1.7492400499511205e+00 6.1035183921884606e-01 0.0000000000000000e+00  1.7295322597851364e+00 7.5782457645171342e-01 0.0000000000000000e+00  1.6266125713357042e+00 9.1328272896365092e-01 0.0000000000000000e+00  1.1694079628428755e+00 -1.1509929446911764e+00 0.0000000000000000e+00  1.2065369350730424e+00 -1.1498657099283904e+00 0.0000000000000000e+00  1.2436276816437764e+00 -1.1463469047010499e+00 0.0000000000000000e+00  1.2806031119599153e+00 -1.1402891026857775e+00 0.0000000000000000e+00  1.3173814161855102e+00 -1.1315406048120991e+00 0.0000000000000000e+00  1.3538759023699309e+00 -1.1199454429429005e+00 0.0000000000000000e+00  1.3899948471151429e+00 -1.1053433919601785e+00 0.0000000000000000e+00  1.4256413539973891e+00 -1.0875699987933314e+00 0.0000000000000000e+00  1.4607132161054790e+00 -1.0664566287202002e+00 0.0000000000000000e+00  1.4951027810588664e+00 -1.0418305273807500e+00 0.0000000000000000e+00  1.5286968181074823e+00 -1.0135148972230912e+00 0.0000000000000000e+00  1.5613763875267286e+00 -9.8132898778163136e-01 0.0000000000000000e+00  1.5930167127912886e+00 -9.4508819975854852e-01 0.0000000000000000e+00  1.6234870561173191e+00 -9.0460420327350788e-01 0.0000000000000000e+00  1.6526505979989752e+00 -8.5968507090350355e-01 0.0000000000000000e+00  1.6803643213756949e+00 -8.1013542630187041e-01 0.0000000000000000e+00  1.7064789010693215e+00 -7.5575660929524768e-01 0.0000000000000000e+00  1.7308385991337283e+00 -6.9634685843013300e-01 0.0000000000000000e+00  1.7532811667665511e+00 -6.3170151198778601e-01 0.0000000000000000e+00  1.7736377534443584e+00 -5.6161322851550888e-01 0.0000000000000000e+00  1.7917328239612362e+00 -4.8587222794093771e-01 0.0000000000000000e+00  1.8073840840738700e+00 -4.0426655435093861e-01 0.0000000000000000e+00  1.8204024154832743e+00 -3.1658236154204361e-01 0.0000000000000000e+00  1.8305918209036531e+00 -2.2260422250405174e-01 0.0000000000000000e+00  1.8377493799579281e+00 -1.2211546411838216e-01 0.0000000000000000e+00  1.8416652165366509e+00 -1.4898528595656553e-02 0.0000000000000000e+00  1.8421224779268601e+00 9.9264636365098330e-02 0.0000000000000000e+00  1.8388973251759240e+00 2.2059215592132572e-01 0.0000000000000000e+00  1.8317589322789460e+00 3.4930177096116594e-01 0.0000000000000000e+00  1.8204694881155832e+00 4.8561034022612187e-01 0.0000000000000000e+00  1.8047841891344696e+00 6.2973329663411259e-01 0.0000000000000000e+00  1.7844512057181807e+00 7.8188406003464439e-01 0.0000000000000000e+00  1.6782708553861980e+00 9.4227343479103665e-01 0.0000000000000000e+00  1.2065202272831284e+00 -1.1875293827631006e+00 0.0000000000000000e+00  1.2448281002170676e+00 -1.1863645761309736e+00 0.0000000000000000e+00  1.2830966979511707e+00 -1.1827322934334781e+00 0.0000000000000000e+00  1.3212464289964243e+00 -1.1764805066954980e+00 0.0000000000000000e+00  1.3591928393468109e+00 -1.1674527379405817e+00 0.0000000000000000e+00  1.3968464505119265e+00 -1.1554880801262595e+00 0.0000000000000000e+00  1.4341126050111197e+00 -1.1404212228846942e+00 0.0000000000000000e+00  1.4708913176789296e+00 -1.1220824895343919e+00 0.0000000000000000e+00  1.5070771311286899e+00 -1.1002978877458962e+00 0.0000000000000000e+00  1.5425589743497228e+00 -1.0748891743374138e+00 0.0000000000000000e+00  1.5772200240743199e+00 -1.0456739341532579e+00 0.0000000000000000e+00  1.6109375689962608e+00 -1.0124656730379289e+00 0.0000000000000000e+00  1.6435828771876073e+00 -9.7507392514482438e-01 0.0000000000000000e+00  1.6750210672039954e+00 -9.3330437504739494e-01 0.0000000000000000e+00  1.7051109834437779e+00 -8.8695899530662414e-01 0.0000000000000000e+00  1.7337050763648976e+00 -8.3583620028842365e-01 0.0000000000000000e+00  1.7606492881841027e+00 -7.7973101712640047e-01 0.0000000000000000e+00  1.7857829446956925e+00 -7.1843527479774871e-01 0.0000000000000000e+00  1.8089386538557011e+00 -6.5173781233030736e-01 0.0000000000000000e+00  1.8299422117854611e+00 -5.7942470719345907e-01 0.0000000000000000e+00  1.8486125168546805e+00 -5.0127952494939787e-01 0.0000000000000000e+00  1.8647614925067040e+00 -4.1708359126307826e-01 0.0000000000000000e+00  1.8781940194805098e+00 -3.2661628739695459e-01 0.0000000000000000e+00  1.8887078780500410e+00 -2.2965537036519384e-01 0.0000000000000000e+00  1.8960937008128425e+00 -1.2597731900996678e-01 0.0000000000000000e+00  1.9001349363599849e+00 -1.5357707411505194e-02 0.0000000000000000e+00  1.9006078237539041e+00 1.0242839273034583e-01 0.0000000000000000e+00  1.8972813769784622e+00 2.2760597883224057e-01 0.0000000000000000e+00  1.8899173772470292e+00 3.6039965121541429e-01 0.0000000000000000e+00  1.8782703692525033e+00 5.0103311238935444e-01 0.0000000000000000e+00  1.8620876557138351e+00 6.4972863270673498e-01 0.0000000000000000e+00  1.8411092859804985e+00 8.0670649008280848e-01 0.0000000000000000e+00  1.7315639379226138e+00 9.7218440440718767e-01 0.0000000000000000e+00  1.2448123640948401e+00 -1.2252256118773075e+00 0.0000000000000000e+00  1.2843364998075306e+00 -1.2240222598652126e+00 0.0000000000000000e+00  1.3238202319381476e+00 -1.2202730738946748e+00 0.0000000000000000e+00  1.3631814120435499e+00 -1.2138212671627995e+00 0.0000000000000000e+00  1.4023328750482187e+00 -1.2045054373744539e+00 0.0000000000000000e+00  1.4411822771889145e+00 -1.1921595941556109e+00 0.0000000000000000e+00  1.4796319380724205e+00 -1.1766131924034933e+00 0.0000000000000000e+00  1.5175786867834966e+00 -1.1576911753783869e+00 0.0000000000000000e+00  1.5549137115858045e+00 -1.1352140298073627e+00 0.0000000000000000e+00  1.5915224128042438e+00 -1.1089978541417238e+00 0.0000000000000000e+00  1.6272842587559964e+00 -1.0788544405759171e+00 0.0000000000000000e+00  1.6620726448568339e+00 -1.0445913712888910e+00 0.0000000000000000e+00  1.6957547562262023e+00 -1.0060121294096473e+00 0.0000000000000000e+00  1.7281914342441707e+00 -9.6291622531560161e-01 0.0000000000000000e+00  1.7592370475952022e+00 -9.1509933898855600e-01 0.0000000000000000e+00  1.7887393683830273e+00 -8.6235347925558592e-01 0.0000000000000000e+00  1.8165394539305471e+00 -8.0446716082506775e-01 0.0000000000000000e+00  1.8424715348961191e+00 -7.4122560009152660e-01 0.0000000000000000e+00  1.8663629103480532e+00 -6.7241093072982983e-01 0.0000000000000000e+00  1.8880338504429086e+00 -5.9780244013162565e-01 0.0000000000000000e+00  1.9072975073518361e+00 -5.1717682776026686e-01 0.0000000000000000e+00  1.9239598350679641e+00 -4.3030848651775633e-01 0.0000000000000000e+00  1.9378195187002152e+00 -3.3696980823459571e-01 0.0000000000000000e+00  1.9486679138014462e+00 -2.3693151441628299e-01 0.0000000000000000e+00  1.9562889961690009e+00 -1.2996301341213354e-01 0.0000000000000000e+00  1.9604593223585811e+00 -1.5832785209418103e-02 0.0000000000000000e+00  1.9609480008241589e+00 1.0569120492773475e-01 0.0000000000000000e+00  1.9575166730960381e+00 2.3484106283841838e-01 0.0000000000000000e+00  1.9499195037584964e+00 3.7184849109843227e-01 0.0000000000000000e+00  1.9379031774127395e+00 5.1694428417930405e-01 0.0000000000000000e+00  1.9212069008444463e+00 6.7035779567577691e-01 0.0000000000000000e+00  1.8995624112071932e+00 8.3231638429009613e-01 0.0000000000000000e+00  1.7865446801714797e+00 1.0030448501205578e+00 0.0000000000000000e+00  1.2843216793914918e+00 -1.2641184477534664e+00 0.0000000000000000e+00  1.3251006419725555e+00 -1.2628754789046406e+00 0.0000000000000000e+00  1.3658380003183515e+00 -1.2590058095070407e+00 0.0000000000000000e+00  1.4064489822653086e+00 -1.2523477337713991e+00 0.0000000000000000e+00  1.4468436378722860e+00 -1.2427347688069030e+00 0.0000000000000000e+00  1.4869266757141952e+00 -1.2299956846245381e+00 0.0000000000000000e+00  1.5265973016337713e+00 -1.2139545417759789e+00 0.0000000000000000e+00  1.5657490603623696e+00 -1.1944307388002300e+00 0.0000000000000000e+00  1.6042696801414598e+00 -1.1712390712306373e+00 0.0000000000000000e+00  1.6420409203524744e+00 -1.1441898033888254e+00 0.0000000000000000e+00  1.6789384222550023e+00 -1.1130887538449881e+00 0.0000000000000000e+00  1.7148315630648452e+00 -1.0777373952678384e+00 0.0000000000000000e+00  1.7495833137316943e+00 -1.0379329693604391e+00 0.0000000000000000e+00  1.7830501008751187e+00 -9.9346861761814653e-01 0.0000000000000000e+00  1.8150816734101811e+00 -9.4413352871133893e-01 0.0000000000000000e+00  1.8455209744419725e+00 -8.8971310336497156e-01 0.0000000000000000e+00  1.8742040190400120e+00 -8.2998913766956706e-01 0.0000000000000000e+00  1.9009597785225467e+00 -7.6474002580920575e-01 0.0000000000000000e+00  1.9256100718909250e+00 -6.9374098323056088e-01 0.0000000000000000e+00  1.9479694650565289e+00 -6.1676429130424293e-01 0.0000000000000000e+00  1.9678451784970092e+00 -5.3357956454618849e-01 0.0000000000000000e+00  1.9850370039625218e+00 -4.4395404147527295e-01 0.0000000000000000e+00  1.9993372308198638e+00 -3.4765290018390127e-01 0.0000000000000000e+00  2.0105305825658970e+00 -2.4443959969136228e-01 0.0000000000000000e+00  2.0183941639472001e+00 -1.3407624812872312e-01 0.0000000000000000e+00  2.0226974189774567e+00 -1.6323998754018000e-02 0.0000000000000000e+00  2.0232020999387990e+00 1.0905652531973149e-01 0.0000000000000000e+00  2.0196622472020240e+00 2.4230477705652426e-01 0.0000000000000000e+00  2.0118241794805938e+00 3.8365980198189553e-01 0.0000000000000000e+00  1.9994264941582238e+00 5.3335972608528370e-01 0.0000000000000000e+00  1.9822000778538937e+00 6.9164121755992103e-01 0.0000000000000000e+00  1.9598681296631675e+00 8.5873892694247866e-01 0.0000000000000000e+00  1.8432673824493182e+00 1.0348849115378109e+00 0.0000000000000000e+00  1.3250866907059187e+00 -1.3042458747676378e+00 0.0000000000000000e+00  1.3671602773484022e+00 -1.3029621348848774e+00 0.0000000000000000e+00  1.4091909916597429e+00 -1.2989682518438881e+00 0.0000000000000000e+00  1.4510913641242311e+00 -1.2920974377888244e+00 0.0000000000000000e+00  1.4927685804514677e+00 -1.2821779658821357e+00 0.0000000000000000e+00  1.5341243149947630e+00 -1.2690332016028953e+00 0.0000000000000000e+00  1.5750545658444268e+00 -1.2524816430440131e+00 0.0000000000000000e+00  1.6154494920815785e+00 -1.2323369715654653e+00 0.0000000000000000e+00  1.6551932535808764e+00 -1.2084081141418441e+00 0.0000000000000000e+00  1.6941638536158163e+00 -1.1804993185465322e+00 0.0000000000000000e+00  1.7322329845432747e+00 -1.1484102423361731e+00 0.0000000000000000e+00  1.7692658769058234e+00 -1.1119360564929510e+00 0.0000000000000000e+00  1.8051211523689559e+00 -1.0708675645465382e+00 0.0000000000000000e+00  1.8396506809812245e+00 -1.0249913380098350e+00 0.0000000000000000e+00  1.8726994433020643e+00 -9.7408986899899475e-01 0.0000000000000000e+00  1.9041053979845337e+00 -9.1794174095447234e-01 0.0000000000000000e+00  1.9336993554287663e+00 -8.5632181842414401e-01 0.0000000000000000e