<?xml version="1.0"?>
<VTKFile type="UnstructuredGrid"  version="0.1"  >
<UnstructuredGrid>
<Piece  NumberOfPoints="1089" NumberOfCells="2048">
<Points>
<DataArray  type="Float64"  NumberOfComponents="3"  format="ascii">0 0 0  0.03125 0 0  0.0625 0 0  0.09375 0 0  0.125 0 0  0.15625 0 0  0.1875 0 0  0.21875 0 0  0.25 0 0  0.28125 0 0  0.3125 0 0  0.34375 0 0  0.375 0 0  0.40625 0 0  0.4375 0 0  0.46875 0 0  0.5 0 0  0.53125 0 0  0.5625 0 0  0.59375 0 0  0.625 0 0  0.65625 0 0  0.6875 0 0  0.71875 0 0  0.75 0 0  0.78125 0 0  0.8125 0 0  0.84375 0 0  0.875 0 0  0.90625 0 0  0.9375 0 0  0.96875 0 0  1 0 0  0 0.03125 0  0.03125 0.03125 0  0.0625 0.03125 0  0.09375 0.03125 0  0.125 0.03125 0  0.15625 0.03125 0  0.1875 0.03125 0  0.21875 0.03125 0  0.25 0.03125 0  0.28125 0.03125 0  0.3125 0.03125 0  0.34375 0.03125 0  0.375 0.03125 0  0.40625 0.03125 0  0.4375 0.03125 0  0.46875 0.03125 0  0.5 0.03125 0  0.53125 0.03125 0  0.5625 0.03125 0  0.59375 0.03125 0  0.625 0.03125 0  0.65625 0.03125 0  0.6875 0.03125 0  0.71875 0.03125 0  0.75 0.03125 0  0.78125 0.03125 0  0.8125 0.03125 0  0.84375 0.03125 0  0.875 0.03125 0  0.90625 0.03125 0  0.9375 0.03125 0  0.96875 0.03125 0  1 0.03125 0  0 0.0625 0  0.03125 0.0625 0  0.0625 0.0625 0  0.09375 0.0625 0  0.125 0.0625 0  0.15625 0.0625 0  0.1875 0.0625 0  0.21875 0.0625 0  0.25 0.0625 0  0.28125 0.0625 0  0.3125 0.0625 0  0.34375 0.0625 0  0.375 0.0625 0  0.40625 0.0625 0  0.4375 0.0625 0  0.46875 0.0625 0  0.5 0.0625 0  0.53125 0.0625 0  0.5625 0.0625 0  0.59375 0.0625 0  0.625 0.0625 0  0.65625 0.0625 0  0.6875 0.0625 0  0.71875 0.0625 0  0.75 0.0625 0  0.78125 0.0625 0  0.8125 0.0625 0  0.84375 0.0625 0  0.875 0.0625 0  0.90625 0.0625 0  0.9375 0.0625 0  0.96875 0.0625 0  1 0.0625 0  0 0.09375 0  0.03125 0.09375 0  0.0625 0.09375 0  0.09375 0.09375 0  0.125 0.09375 0  0.15625 0.09375 0  0.1875 0.09375 0  0.21875 0.09375 0  0.25 0.09375 0  0.28125 0.09375 0  0.3125 0.09375 0  0.34375 0.09375 0  0.375 0.09375 0  0.40625 0.09375 0  0.4375 0.09375 0  0.46875 0.09375 0  0.5 0.09375 0  0.53125 0.09375 0  0.5625 0.09375 0  0.59375 0.09375 0  0.625 0.09375 0  0.65625 0.09375 0  0.6875 0.09375 0  0.71875 0.09375 0  0.75 0.09375 0  0.78125 0.09375 0  0.8125 0.09375 0  0.84375 0.09375 0  0.875 0.09375 0  0.90625 0.09375 0  0.9375 0.09375 0  0.96875 0.09375 0  1 0.09375 0  0 0.125 0  0.03125 0.125 0  0.0625 0.125 0  0.09375 0.125 0  0.125 0.125 0  0.15625 0.125 0  0.1875 0.125 0  0.21875 0.125 0  0.25 0.125 0  0.28125 0.125 0  0.3125 0.125 0  0.34375 0.125 0  0.375 0.125 0  0.40625 0.125 0  0.4375 0.125 0  0.46875 0.125 0  0.5 0.125 0  0.53125 0.125 0  0.5625 0.125 0  0.59375 0.125 0  0.625 0.125 0  0.65625 0.125 0  0.6875 0.125 0  0.71875 0.125 0  0.75 0.125 0  0.78125 0.125 0  0.8125 0.125 0  0.84375 0.125 0  0.875 0.125 0  0.90625 0.125 0  0.9375 0.125 0  0.96875 0.125 0  1 0.125 0  0 0.15625 0  0.03125 0.15625 0  0.0625 0.15625 0  0.09375 0.15625 0  0.125 0.15625 0  0.15625 0.15625 0  0.1875 0.15625 0  0.21875 0.15625 0  0.25 0.15625 0  0.28125 0.15625 0  0.3125 0.15625 0  0.34375 0.15625 0  0.375 0.15625 0  0.40625 0.15625 0  0.4375 0.15625 0  0.46875 0.15625 0  0.5 0.15625 0  0.53125 0.15625 0  0.5625 0.15625 0  0.59375 0.15625 0  0.625 0.15625 0  0.65625 0.15625 0  0.6875 0.15625 0  0.71875 0.15625 0  0.75 0.15625 0  0.78125 0.15625 0  0.8125 0.15625 0  0.84375 0.15625 0  0.875 0.15625 0  0.90625 0.15625 0  0.9375 0.15625 0  0.96875 0.15625 0  1 0.15625 0  0 0.1875 0  0.03125 0.1875 0  0.0625 0.1875 0  0.09375 0.1875 0  0.125 0.1875 0  0.15625 0.1875 0  0.1875 0.1875 0  0.21875 0.1875 0  0.25 0.1875 0  0.28125 0.1875 0  0.3125 0.1875 0  0.34375 0.1875 0  0.375 0.1875 0  0.40625 0.1875 0  0.4375 0.1875 0  0.46875 0.1875 0  0.5 0.1875 0  0.53125 0.1875 0  0.5625 0.1875 0  0.59375 0.1875 0  0.625 0.1875 0  0.65625 0.1875 0  0.6875 0.1875 0  0.71875 0.1875 0  0.75 0.1875 0  0.78125 0.1875 0  0.8125 0.1875 0  0.84375 0.1875 0  0.875 0.1875 0  0.90625 0.1875 0  0.9375 0.1875 0  0.96875 0.1875 0  1 0.1875 0  0 0.21875 0  0.03125 0.21875 0  0.0625 0.21875 0  0.09375 0.21875 0  0.125 0.21875 0  0.15625 0.21875 0  0.1875 0.21875 0  0.21875 0.21875 0  0.25 0.21875 0  0.28125 0.21875 0  0.3125 0.21875 0  0.34375 0.21875 0  0.375 0.21875 0  0.40625 0.21875 0  0.4375 0.21875 0  0.46875 0.21875 0  0.5 0.21875 0  0.53125 0.21875 0  0.5625 0.21875 0  0.59375 0.21875 0  0.625 0.21875 0  0.65625 0.21875 0  0.6875 0.21875 0  0.71875 0.21875 0  0.75 0.21875 0  0.78125 0.21875 0  0.8125 0.21875 0  0.84375 0.21875 0  0.875 0.21875 0  0.90625 0.21875 0  0.9375 0.21875 0  0.96875 0.21875 0  1 0.21875 0  0 0.25 0  0.03125 0.25 0  0.0625 0.25 0  0.09375 0.25 0  0.125 0.25 0  0.15625 0.25 0  0.1875 0.25 0  0.21875 0.25 0  0.25 0.25 0  0.28125 0.25 0  0.3125 0.25 0  0.34375 0.25 0  0.375 0.25 0  0.40625 0.25 0  0.4375 0.25 0  0.46875 0.25 0  0.5 0.25 0  0.53125 0.25 0  0.5625 0.25 0  0.59375 0.25 0  0.625 0.25 0  0.65625 0.25 0  0.6875 0.25 0  0.71875 0.25 0  0.75 0.25 0  0.78125 0.25 0  0.8125 0.25 0  0.84375 0.25 0  0.875 0.25 0  0.90625 0.25 0  0.9375 0.25 0  0.96875 0.25 0  1 0.25 0  0 0.28125 0  0.03125 0.28125 0  0.0625 0.28125 0  0.09375 0.28125 0  0.125 0.28125 0  0.15625 0.28125 0  0.1875 0.28125 0  0.21875 0.28125 0  0.25 0.28125 0  0.28125 0.28125 0  0.3125 0.28125 0  0.34375 0.28125 0  0.375 0.28125 0  0.40625 0.28125 0  0.4375 0.28125 0  0.46875 0.28125 0  0.5 0.28125 0  0.53125 0.28125 0  0.5625 0.28125 0  0.59375 0.28125 0  0.625 0.28125 0  0.65625 0.28125 0  0.6875 0.28125 0  0.71875 0.28125 0  0.75 0.28125 0  0.78125 0.28125 0  0.8125 0.28125 0  0.84375 0.28125 0  0.875 0.28125 0  0.90625 0.28125 0  0.9375 0.28125 0  0.96875 0.28125 0  1 0.28125 0  0 0.3125 0  0.03125 0.3125 0  0.0625 0.3125 0  0.09375 0.3125 0  0.125 0.3125 0  0.15625 0.3125 0  0.1875 0.3125 0  0.21875 0.3125 0  0.25 0.3125 0  0.28125 0.3125 0  0.3125 0.3125 0  0.34375 0.3125 0  0.375 0.3125 0  0.40625 0.3125 0  0.4375 0.3125 0  0.46875 0.3125 0  0.5 0.3125 0  0.53125 0.3125 0  0.5625 0.3125 0  0.59375 0.3125 0  0.625 0.3125 0  0.65625 0.3125 0  0.6875 0.3125 0  0.71875 0.3125 0  0.75 0.3125 0  0.78125 0.3125 0  0.8125 0.3125 0  0.84375 0.3125 0  0.875 0.3125 0  0.90625 0.3125 0  0.9375 0.3125 0  0.96875 0.3125 0  1 0.3125 0  0 0.34375 0  0.03125 0.34375 0  0.0625 0.34375 0  0.09375 0.34375 0  0.125 0.34375 0  0.15625 0.34375 0  0.1875 0.34375 0  0.21875 0.34375 0  0.25 0.34375 0  0.28125 0.34375 0  0.3125 0.34375 0  0.34375 0.34375 0  0.375 0.34375 0  0.40625 0.34375 0  0.4375 0.34375 0  0.46875 0.34375 0  0.5 0.34375 0  0.53125 0.34375 0  0.5625 0.34375 0  0.59375 0.34375 0  0.625 0.34375 0  0.65625 0.34375 0  0.6875 0.34375 0  0.71875 0.34375 0  0.75 0.34375 0  0.78125 0.34375 0  0.8125 0.34375 0  0.84375 0.34375 0  0.875 0.34375 0  0.90625 0.34375 0  0.9375 0.34375 0  0.96875 0.34375 0  1 0.34375 0  0 0.375 0  0.03125 0.375 0  0.0625 0.375 0  0.09375 0.375 0  0.125 0.375 0  0.15625 0.375 0  0.1875 0.375 0  0.21875 0.375 0  0.25 0.375 0  0.28125 0.375 0  0.3125 0.375 0  0.34375 0.375 0  0.375 0.375 0  0.40625 0.375 0  0.4375 0.375 0  0.46875 0.375 0  0.5 0.375 0  0.53125 0.375 0  0.5625 0.375 0  0.59375 0.375 0  0.625 0.375 0  0.65625 0.375 0  0.6875 0.375 0  0.71875 0.375 0  0.75 0.375 0  0.78125 0.375 0  0.8125 0.375 0  0.84375 0.375 0  0.875 0.375 0  0.90625 0.375 0  0.9375 0.375 0  0.96875 0.375 0  1 0.375 0  0 0.40625 0  0.03125 0.40625 0  0.0625 0.40625 0  0.09375 0.40625 0  0.125 0.40625 0  0.15625 0.40625 0  0.1875 0.40625 0  0.21875 0.40625 0  0.25 0.40625 0  0.28125 0.40625 0  0.3125 0.40625 0  0.34375 0.40625 0  0.375 0.40625 0  0.40625 0.40625 0  0.4375 0.40625 0  0.46875 0.40625 0  0.5 0.40625 0  0.53125 0.40625 0  0.5625 0.40625 0  0.59375 0.40625 0  0.625 0.40625 0  0.65625 0.40625 0  0.6875 0.40625 0  0.71875 0.40625 0  0.75 0.40625 0  0.78125 0.40625 0  0.8125 0.40625 0  0.84375 0.40625 0  0.875 0.40625 0  0.90625 0.40625 0  0.9375 0.40625 0  0.96875 0.40625 0  1 0.40625 0  0 0.4375 0  0.03125 0.4375 0  0.0625 0.4375 0  0.09375 0.4375 0  0.125 0.4375 0  0.15625 0.4375 0  0.1875 0.4375 0  0.21875 0.4375 0  0.25 0.4375 0  0.28125 0.4375 0  0.3125 0.4375 0  0.34375 0.4375 0  0.375 0.4375 0  0.40625 0.4375 0  0.4375 0.4375 0  0.46875 0.4375 0  0.5 0.4375 0  0.53125 0.4375 0  0.5625 0.4375 0  0.59375 0.4375 0  0.625 0.4375 0  0.65625 0.4375 0  0.6875 0.4375 0  0.71875 0.4375 0  0.75 0.4375 0  0.78125 0.4375 0  0.8125 0.4375 0  0.84375 0.4375 0  0.875 0.4375 0  0.90625 0.4375 0  0.9375 0.4375 0  0.96875 0.4375 0  1 0.4375 0  0 0.46875 0  0.03125 0.46875 0  0.0625 0.46875 0  0.09375 0.46875 0  0.125 0.46875 0  0.15625 0.46875 0  0.1875 0.46875 0  0.21875 0.46875 0  0.25 0.46875 0  0.28125 0.46875 0  0.3125 0.46875 0  0.34375 0.46875 0  0.375 0.46875 0  0.40625 0.46875 0  0.4375 0.46875 0  0.46875 0.46875 0  0.5 0.46875 0  0.53125 0.46875 0  0.5625 0.46875 0  0.59375 0.46875 0  0.625 0.46875 0  0.65625 0.46875 0  0.6875 0.46875 0  0.71875 0.46875 0  0.75 0.46875 0  0.78125 0.46875 0  0.8125 0.46875 0  0.84375 0.46875 0  0.875 0.46875 0  0.90625 0.46875 0  0.9375 0.46875 0  0.96875 0.46875 0  1 0.46875 0  0 0.5 0  0.03125 0.5 0  0.0625 0.5 0  0.09375 0.5 0  0.125 0.5 0  0.15625 0.5 0  0.1875 0.5 0  0.21875 0.5 0  0.25 0.5 0  0.28125 0.5 0  0.3125 0.5 0  0.34375 0.5 0  0.375 0.5 0  0.40625 0.5 0  0.4375 0.5 0  0.46875 0.5 0  0.5 0.5 0  0.53125 0.5 0  0.5625 0.5 0  0.59375 0.5 0  0.625 0.5 0  0.65625 0.5 0  0.6875 0.5 0  0.71875 0.5 0  0.75 0.5 0  0.78125 0.5 0  0.8125 0.5 0  0.84375 0.5 0  0.875 0.5 0  0.90625 0.5 0  0.9375 0.5 0  0.96875 0.5 0  1 0.5 0  0 0.53125 0  0.03125 0.53125 0  0.0625 0.53125 0  0.09375 0.53125 0  0.125 0.53125 0  0.15625 0.53125 0  0.1875 0.53125 0  0.21875 0.53125 0  0.25 0.53125 0  0.28125 0.53125 0  0.3125 0.53125 0  0.34375 0.53125 0  0.375 0.53125 0  0.40625 0.53125 0  0.4375 0.53125 0  0.46875 0.53125 0  0.5 0.53125 0  0.53125 0.53125 0  0.5625 0.53125 0  0.59375 0.53125 0  0.625 0.53125 0  0.65625 0.53125 0  0.6875 0.53125 0  0.71875 0.53125 0  0.75 0.53125 0  0.78125 0.531
[...]
<PointData  Vectors="f_541"> 
<DataArray  type="Float64"  Name="f_541"  NumberOfComponents="3" format="ascii">1.0468242814657307e+00 -1.0157477085866857e+00 0.0000000000000000e+00  1.0798886116181408e+00 -1.0282042632946296e+00 0.0000000000000000e+00  1.1132643565364480e+00 -1.0382777532731853e+00 0.0000000000000000e+00  1.1468126459302994e+00 -1.0455021057496965e+00 0.0000000000000000e+00  1.1804040646524525e+00 -1.0494928040669060e+00 0.0000000000000000e+00  1.2139079309204508e+00 -1.0499268406278330e+00 0.0000000000000000e+00  1.2471962725335806e+00 -1.0465398201608331e+00 0.0000000000000000e+00  1.2801476419815223e+00 -1.0391176022313333e+00 0.0000000000000000e+00  1.3126377637422388e+00 -1.0274844272879160e+00 0.0000000000000000e+00  1.3445449309428947e+00 -1.0115024830277357e+00 0.0000000000000000e+00  1.3757567213094395e+00 -9.9106229507891341e-01 0.0000000000000000e+00  1.4061536204223450e+00 -9.6606705990909136e-01 0.0000000000000000e+00  1.4356108895460309e+00 -9.3643574737240065e-01 0.0000000000000000e+00  1.4640032644265619e+00 -9.0210140279791617e-01 0.0000000000000000e+00  1.4912103120323139e+00 -8.6300191694079131e-01 0.0000000000000000e+00  1.5170905273222353e+00 -8.1906662005555619e-01 0.0000000000000000e+00  1.5414921809539706e+00 -7.7023272416197808e-01 0.0000000000000000e+00  1.5642606695838621e+00 -7.1644318176669997e-01 0.0000000000000000e+00  1.5852297301002629e+00 -6.5763753428839056e-01 0.0000000000000000e+00  1.6042232872656097e+00 -5.9375410811154350e-01 0.0000000000000000e+00  1.6210629721158751e+00 -5.2472760708606581e-01 0.0000000000000000e+00  1.6355767632371505e+00 -4.5047763770216459e-01 0.0000000000000000e+00  1.6475992364643908e+00 -3.7088961665121589e-01 0.0000000000000000e+00  1.6569886001261829e+00 -2.8579855893227579e-01 0.0000000000000000e+00  1.6636479263086550e+00 -1.9495370507975565e-01 0.0000000000000000e+00  1.6675279417143487e+00 -9.7960979177487348e-02 0.0000000000000000e+00  1.6686067082929348e+00 5.7753806960300505e-03 0.0000000000000000e+00  1.6668282617264896e+00 1.1707547590125568e-01 0.0000000000000000e+00  1.6622264263067985e+00 2.3696126771647627e-01 0.0000000000000000e+00  1.6545703794812967e+00 3.6671134432056152e-01 0.0000000000000000e+00  1.6441399812065964e+00 5.0777382348410216e-01 0.0000000000000000e+00  1.6301912765542368e+00 6.6159854388129469e-01 0.0000000000000000e+00  1.4809318485658227e+00 8.3155338759083752e-01 0.0000000000000000e+00  1.1222018175522868e+00 -1.0479910020166328e+00 0.0000000000000000e+00  1.1566737441900574e+00 -1.0607610927670010e+00 0.0000000000000000e+00  1.1917553322212593e+00 -1.0710588439221651e+00 0.0000000000000000e+00  1.2272660469730499e+00 -1.0783947802940084e+00 0.0000000000000000e+00  1.2630328723910904e+00 -1.0823762699266017e+00 0.0000000000000000e+00  1.2988818046955284e+00 -1.0826771576014029e+00 0.0000000000000000e+00  1.3346461739706479e+00 -1.0790345325161086e+00 0.0000000000000000e+00  1.3701752794215847e+00 -1.0712376829342563e+00 0.0000000000000000e+00  1.4053183342368973e+00 -1.0591105018399050e+00 0.0000000000000000e+00  1.4399309371599500e+00 -1.0425169097733158e+00 0.0000000000000000e+00  1.4738891460272527e+00 -1.0213514703708348e+00 0.0000000000000000e+00  1.5070688382680768e+00 -9.9551498835887819e-01 0.0000000000000000e+00  1.5393366985182244e+00 -9.6492067837988016e-01 0.0000000000000000e+00  1.5705596811491185e+00 -9.2949813113036384e-01 0.0000000000000000e+00  1.6006160905804796e+00 -8.8918220127036940e-01 0.0000000000000000e+00  1.6293630962513457e+00 -8.4388941992827382e-01 0.0000000000000000e+00  1.6566319206829205e+00 -7.9354226554125595e-01 0.0000000000000000e+00  1.6822461007937994e+00 -7.3807215020512640e-01 0.0000000000000000e+00  1.7060099176720998e+00 -6.7740445676670213e-01 0.0000000000000000e+00  1.7277114241207516e+00 -6.1146457807194421e-01 0.0000000000000000e+00  1.7471205257958493e+00 -5.4017523382572719e-01 0.0000000000000000e+00  1.7640119523178206e+00 -4.6345182621998038e-01 0.0000000000000000e+00  1.7781649208251595e+00 -3.8118085167106158e-01 0.0000000000000000e+00  1.7893957761934149e+00 -2.9321285449338536e-01 0.0000000000000000e+00  1.7975861932227386e+00 -1.9932495547490250e-01 0.0000000000000000e+00  1.8027089341484770e+00 -9.9158577384586499e-02 0.0000000000000000e+00  1.8047736693237975e+00 7.8655220329436389e-03 0.0000000000000000e+00  1.8037543211334506e+00 1.2256069954882716e-01 0.0000000000000000e+00  1.7997157812383482e+00 2.4594930969628559e-01 0.0000000000000000e+00  1.7923946243286455e+00 3.7935197162034262e-01 0.0000000000000000e+00  1.7821931866829295e+00 5.2420932563577871e-01 0.0000000000000000e+00  1.7678110908760409e+00 6.8299960150051442e-01 0.0000000000000000e+00  1.6157451721833449e+00 8.5794972563039296e-01 0.0000000000000000e+00  1.1978819981616067e+00 -1.0812578074490395e+00 0.0000000000000000e+00  1.2338122252646888e+00 -1.0946854682824623e+00 0.0000000000000000e+00  1.2706161754380441e+00 -1.1054825541885764e+00 0.0000000000000000e+00  1.3080720064004443e+00 -1.1131631728460649e+00 0.0000000000000000e+00  1.3459697010147749e+00 -1.1173312767327235e+00 0.0000000000000000e+00  1.3840977359472195e+00 -1.1176582173370111e+00 0.0000000000000000e+00  1.4222533322366528e+00 -1.1138847524275388e+00 0.0000000000000000e+00  1.4602581217515473e+00 -1.1058083417795053e+00 0.0000000000000000e+00  1.4979384340837680e+00 -1.0932579469239052e+00 0.0000000000000000e+00  1.5351285241094419e+00 -1.0761033102324529e+00 0.0000000000000000e+00  1.5716899222176339e+00 -1.0542481667977452e+00 0.0000000000000000e+00  1.6074953297889707e+00 -1.0275989393950846e+00 0.0000000000000000e+00  1.6424126997896238e+00 -9.9606632807427053e-01 0.0000000000000000e+00  1.6763067404685339e+00 -9.5957591685924037e-01 0.0000000000000000e+00  1.7090561019661243e+00 -9.1806039944181106e-01 0.0000000000000000e+00  1.7405311431779449e+00 -8.7142900141557866e-01 0.0000000000000000e+00  1.7705704785915235e+00 -8.1958333501703196e-01 0.0000000000000000e+00  1.7989877302518558e+00 -7.6243279775965267e-01 0.0000000000000000e+00  1.8255759074294864e+00 -6.9988436990351122e-01 0.0000000000000000e+00  1.8501025978631618e+00 -6.3184305747083380e-01 0.0000000000000000e+00  1.8723027927494531e+00 -5.5820881926961496e-01 0.0000000000000000e+00  1.8918952514540663e+00 -4.7888393054518563e-01 0.0000000000000000e+00  1.9086007120408592e+00 -3.9375697565859519e-01 0.0000000000000000e+00  1.9221696455307189e+00 -3.0269779675933417e-01 0.0000000000000000e+00  1.9324176790373140e+00 -2.0552032841726012e-01 0.0000000000000000e+00  1.9392768065669004e+00 -1.0191451735116905e-01 0.0000000000000000e+00  1.9427030713880908e+00 8.6829365666488498e-03 0.0000000000000000e+00  1.9425921826443828e+00 1.2709557639443744e-01 0.0000000000000000e+00  1.9389430713035747e+00 2.5438674057724631e-01 0.0000000000000000e+00  1.9313347884318179e+00 3.9200279951583977e-01 0.0000000000000000e+00  1.9202509406009507e+00 5.4157188465607664e-01 0.0000000000000000e+00  1.9037787980040581e+00 7.0593635405990152e-01 0.0000000000000000e+00  1.7501485911956156e+00 8.8518397338482169e-01 0.0000000000000000e+00  1.2735501186349569e+00 -1.1155806146424807e+00 0.0000000000000000e+00  1.3109670958540640e+00 -1.1299841000608006e+00 0.0000000000000000e+00  1.3495087927504494e+00 -1.1415425618330355e+00 0.0000000000000000e+00  1.3889108351348529e+00 -1.1497832726396258e+00 0.0000000000000000e+00  1.4289267469133886e+00 -1.1543155785120203e+00 0.0000000000000000e+00  1.4693092083209347e+00 -1.1548120627622491e+00 0.0000000000000000e+00  1.5098203341655203e+00 -1.1510190640879949e+00 0.0000000000000000e+00  1.5502520937295925e+00 -1.1427455581972132e+00 0.0000000000000000e+00  1.5904079389537800e+00 -1.1298314639892526e+00 0.0000000000000000e+00  1.6301030097774585e+00 -1.1121565594894893e+00 0.0000000000000000e+00  1.6691822191262464e+00 -1.0896367575311361e+00 0.0000000000000000e+00  1.7075089542735542e+00 -1.0621905697047229e+00 0.0000000000000000e+00  1.7449549642308206e+00 -1.0297351535526824e+00 0.0000000000000000e+00  1.7813915338252000e+00 -9.9219442253106971e-01 0.0000000000000000e+00  1.8166999611453569e+00 -9.4949831508154936e-01 0.0000000000000000e+00  1.8507618255522940e+00 -9.0155335909340517e-01 0.0000000000000000e+00  1.8834382207470179e+00 -8.4824435570743051e-01 0.0000000000000000e+00  1.9145508387613646e+00 -7.8945015658278128e-01 0.0000000000000000e+00  1.9438887863429870e+00 -7.2505025191340289e-01 0.0000000000000000e+00  1.9712043552695691e+00 -6.5491905465738742e-01 0.0000000000000000e+00  1.9962077926657291e+00 -5.7892484402499578e-01 0.0000000000000000e+00  2.0185628198553158e+00 -4.9693963507643596e-01 0.0000000000000000e+00  2.0379187396116794e+00 -4.0884403657824342e-01 0.0000000000000000e+00  2.0539413307604537e+00 -3.1451623111201144e-01 0.0000000000000000e+00  2.0663420932283514e+00 -2.1379570457084271e-01 0.0000000000000000e+00  2.0749630534788279e+00 -1.0641003142599685e-01 0.0000000000000000e+00  2.0796546139761944e+00 8.2096507761485228e-03 0.0000000000000000e+00  2.0801807945357340e+00 1.3092603661391589e-01 0.0000000000000000e+00  2.0764471317251507e+00 2.6286772262349761e-01 0.0000000000000000e+00  2.0678922215461761e+00 4.0557702418568192e-01 0.0000000000000000e+00  2.0552170973826738e+00 5.6059818330307865e-01 0.0000000000000000e+00  2.0364962245342677e+00 7.3034676360201700e-01 0.0000000000000000e+00  1.8825099379872119e+00 9.1328272896365081e-01 0.0000000000000000e+00  1.3489312606288391e+00 -1.1509929446911764e+00 0.0000000000000000e+00  1.3878660420456377e+00 -1.1666640543425757e+00 0.0000000000000000e+00  1.4281672158081449e+00 -1.1792352350012247e+00 0.0000000000000000e+00  1.4695305777922232e+00 -1.1882448708530757e+00 0.0000000000000000e+00  1.5116731266264118e+00 -1.1933116338527245e+00 0.0000000000000000e+00  1.5543118107079568e+00 -1.1941134758334730e+00 0.0000000000000000e+00  1.5971737590566097e+00 -1.1904050118053267e+00 0.0000000000000000e+00  1.6400206875530210e+00 -1.1820092265804929e+00 0.0000000000000000e+00  1.6826277058680192e+00 -1.1687809677441627e+00 0.0000000000000000e+00  1.7247896183344515e+00 -1.1506160045666707e+00 0.0000000000000000e+00  1.7663340717896894e+00 -1.1274452729253592e+00 0.0000000000000000e+00  1.8071100747892819e+00 -1.0992030803968553e+00 0.0000000000000000e+00  1.8469851659411651e+00 -1.0658218088867402e+00 0.0000000000000000e+00  1.8858395670489934e+00 -1.0272325205960391e+00 0.0000000000000000e+00  1.9235625989029461e+00 -9.8336318092498132e-01 0.0000000000000000e+00  1.9600451622215869e+00 -9.3411776679203684e-01 0.0000000000000000e+00  1.9951664968128882e+00 -8.7937046507844574e-01 0.0000000000000000e+00  2.0287713879710050e+00 -8.1897049052846105e-01 0.0000000000000000e+00  2.0606528342759223e+00 -7.5275596283437252e-01 0.0000000000000000e+00  2.0905514826362381e+00 -6.8055832176035935e-01 0.0000000000000000e+00  2.1181526371079058e+00 -6.0220209448885320e-01 0.0000000000000000e+00  2.1430710437980478e+00 -5.1751177920188007e-01 0.0000000000000000e+00  2.1648746386379996e+00 -4.2633692916705829e-01 0.0000000000000000e+00  2.1831307694884492e+00 -3.2854513804156626e-01 0.0000000000000000e+00  2.1974303054361672e+00 -2.2397992616197107e-01 0.0000000000000000e+00  2.2075029207192860e+00 -1.1238728493292673e-01 0.0000000000000000e+00  2.2130924984903464e+00 6.8167838361499825e-03 0.0000000000000000e+00  2.2138576615800951e+00 1.3452957517405315e-01 0.0000000000000000e+00  2.2096614260330840e+00 2.7189381227751391e-01 0.0000000000000000e+00  2.1998805041483322e+00 4.2037414361300873e-01 0.0000000000000000e+00  2.1856200020527754e+00 5.8109948952058199e-01 0.0000000000000000e+00  2.1649106774469020e+00 7.5594762844283026e-01 0.0000000000000000e+00  2.0114095240374619e+00 9.4227343479103665e-01 0.0000000000000000e+00  1.4237642196485267e+00 -1.1875293827631006e+00 0.0000000000000000e+00  1.4642575033990290e+00 -1.2047436915189023e+00 0.0000000000000000e+00  1.5063522001263314e+00 -1.2185692702230562e+00 0.0000000000000000e+00  1.5497067913418068e+00 -1.2285521364036458e+00 0.0000000000000000e+00  1.5940027649851187e+00 -1.2343205305837754e+00 0.0000000000000000e+00  1.6389199332532201e+00 -1.2355598676933643e+00 0.0000000000000000e+00  1.6841502234974763e+00 -1.2320358815707140e+00 0.0000000000000000e+00  1.7294236476166165e+00 -1.2235874825950492e+00 0.0000000000000000e+00  1.7744835492530879e+00 -1.2100861799107958e+00 0.0000000000000000e+00  1.8190969428521087e+00 -1.1914482093392320e+00 0.0000000000000000e+00  1.8630717665219070e+00 -1.1676247880686068e+00 0.0000000000000000e+00  1.9062384166260982e+00 -1.1385692279770332e+00 0.0000000000000000e+00  1.9484529444810739e+00 -1.1042345577316721e+00 0.0000000000000000e+00  1.9895944228838685e+00 -1.0645678123979214e+00 0.0000000000000000e+00  2.0295603768366175e+00 -1.0195021481803070e+00 0.0000000000000000e+00  2.0682514938126486e+00 -9.6893965996163700e-01 0.0000000000000000e+00  2.1055612093892320e+00 -9.1274522075573994e-01 0.0000000000000000e+00  2.1413529507101217e+00 -8.5074176355360054e-01 0.0000000000000000e+00  2.1754335403889855e+00 -7.8271958016569743e-01 0.0000000000000000e+00  2.2075383298112916e+00 -7.0845295037355682e-01 0.0000000000000000e+00  2.2373302938137347e+00 -6.2770590560083694e-01 0.0000000000000000e+00  2.2643772656087986e+00 -5.4023782071663862e-01 0.0000000000000000e+00  2.2881722671798261e+00 -4.4584287374551007e-01 0.0000000000000000e+00  2.3081828066416938e+00 -3.4435420891101071e-01 0.0000000000000000e+00  2.3238862203166351e+00 -2.3560233945761280e-01 0.0000000000000000e+00  2.3349127669156724e+00 -1.1934356462990939e-01 0.0000000000000000e+00  2.3409408676385852e+00 4.9992307075487248e-03 0.0000000000000000e+00  2.3415988769102527e+00 1.3830532886635574e-01 0.0000000000000000e+00  2.3367852305088057e+00 2.8163839115601846e-01 0.0000000000000000e+00  2.3258497781263787e+00 4.3623542121572756e-01 0.0000000000000000e+00  2.3102911791190275e+00 6.0269240432018578e-01 0.0000000000000000e+00  2.2878276431011635e+00 7.8252273185715859e-01 0.0000000000000000e+00  2.1355033470969138e+00 9.7218440440718767e-01 0.0000000000000000e+00  1.4977864694113818e+00 -1.2252256118773075e+00 0.0000000000000000e+00  1.5398893673731213e+00 -1.2442522714649429e+00 0.0000000000000000e+00  1.5838258796042983e+00 -1.2595683445461321e+00 0.0000000000000000e+00  1.6292173197898425e+00 -1.2707254817717937e+00 0.0000000000000000e+00  1.6757101450088181e+00 -1.2773607278635051e+00 0.0000000000000000e+00  1.7229453172174054e+00 -1.2791670165398634e+00 0.0000000000000000e+00  1.7705781043027131e+00 -1.2759235167191985e+00 0.0000000000000000e+00  1.8183057653488084e+00 -1.2674864458434485e+00 0.0000000000000000e+00  1.8658353519562700e+00 -1.2537443746094759e+00 0.0000000000000000e+00  1.9129000768929860e+00 -1.2346361642160193e+00 0.0000000000000000e+00  1.9592815541123465e+00 -1.2101386752917336e+00 0.0000000000000000e+00  2.0047863064713947e+00 -1.1802279891470240e+00 0.0000000000000000e+00  2.0492483210254901e+00 -1.1448808240934119e+00 0.0000000000000000e+00  2.0925359173049767e+00 -1.1040669825374236e+00 0.0000000000000000e+00  2.1345462465194158e+00 -1.0577340159448230e+00 0.0000000000000000e+00  2.1751853657291123e+00 -1.0057863564896166e+00 0.0000000000000000e+00  2.2143547665770931e+00 -9.4808001369696504e-01 0.0000000000000000e+00  2.2519340164535064e+00 -8.8441330134372576e-01 0.0000000000000000e+00  2.2877440647277743e+00 -8.1452827328562827e-01 0.0000000000000000e+00  2.3215234469609252e+00 -7.3813181395399663e-01 0.0000000000000000e+00  2.3529200346195953e+00 -6.5491055118163510e-01 0.0000000000000000e+00  2.3814669926348806e+00 -5.6454170476822685e-01 0.0000000000000000e+00  2.4065979435807692e+00 -4.6674548785287040e-01 0.0000000000000000e+00  2.4277012328519576e+00 -3.6130170233644060e-01 0.0000000000000000e+00  2.4441691983802376e+00 -2.4802279402590166e-01 0.0000000000000000e+00  2.4555718588887268e+00 -1.2668894375966294e-01 0.0000000000000000e+00  2.4615817692450843e+00 3.2210960417190016e-03 0.0000000000000000e+00  2.4618846989089067e+00 1.4249328962256533e-01 0.0000000000000000e+00  2.4564785267613418e+00 2.9204430886555299e-01 0.0000000000000000e+00  2.4446440543686370e+00 4.5285141807240492e-01 0.0000000000000000e+00  2.4281474070049653e+00 6.2502857850569871e-01 0.0000000000000000e+00  2.4041542892728853e+00 8.0991101888204231e-01 0.0000000000000000e+00  2.2535031458817709e+00 1.0030448501205578e+00 0.0000000000000000e+00  1.5707230973069106e+00 -1.2641184477534664e+00 0.0000000000000000e+00  1.6144963250178239e+00 -1.2852282384652585e+00 0.0000000000000000e+00  1.6603356859124649e+00 -1.3022699754883118e+00 0.0000000000000000e+00  1.7078235872553247e+00 -1.3148005891113397e+00 0.0000000000000000e+00  1.7565700048431665e+00 -1.3224655208961722e+00 0.0000000000000000e+00  1.8061757756599313e+00 -1.3249650955988388e+00 0.0000000000000000e+00  1.8562575598826674e+00 -1.3220931646796179e+00 0.0000000000000000e+00  1.9064779038322159e+00 -1.3137240494567939e+00 0.0000000000000000e+00  1.9565040109585974e+00 -1.2997626649847793e+00 0.0000000000000000e+00  2.0060285269341747e+00 -1.2801713705209061e+00 0.0000000000000000e+00  2.0547999292862635e+00 -1.2549559319564969e+00 0.0000000000000000e+00  2.1025920888460012e+00 -1.2241179256088450e+00 0.0000000000000000e+00  2.1492060844182745e+00 -1.1876596183074930e+00 0.0000000000000000e+00  2.1944861688298212e+00 -1.1455796139282040e+00 0.0000000000000000e+00  2.2383184534044749e+00 -1.0978477894646761e+00 0.0000000000000000e+00  2.2806039786951624e+00 -1.0443764347643614e+00 0.0000000000000000e+00  2.3212433381421578e+00 -9.8501562219164751e-01 0.0000000000000000e+00  2.3601274950984203e+00 -9.1954346838072198e-01 0.0000000000000000e+00  2.3970931397294546e+00 -8.4765473113592971e-01 0.0000000000000000e+00  2.4318881458781076e+00 -7.6898471681999048e-01 0.0000000000000000e+00  2.4641590154189670e+00 -6.8313263085249731e-01 0.0000000000000000e+00  2.4934275945838493e+00 -5.8968341935237434e-01 0.0000000000000000e+00  2.5190951238395991e+00 -4.8827143887169938e-01 0.0000000000000000e+00  2.5405101386468663e+00 -3.7861916534659812e-01 0.0000000000000000e+00  2.5570293049769086e+00 -2.6052959177913332e-01 0.0000000000000000e+00  2.5682153129565428e+00 -1.3383517079289825e-01 0.0000000000000000e+00  2.5737863171980417e+00 1.8731193434896908e-03 0.0000000000000000e+00  2.5735575183603951e+00 1.4721996418550301e-01 0.0000000000000000e+00  2.5676771125780502e+00 3.0296322782625451e-01 0.0000000000000000e+00  2.5552892474562836e+00 4.6990165978634607e-01 0.0000000000000000e+00  2.5382667971597979e+00 6.4780579822597217e-01 0.0000000000000000e+00  2.5129669115315427e+00 8.3796078961984499e-01 0.0000000000000000e+00  2.3642935113930856e+00 1.0348849115378109e+00 0.0000000000000000e+00  1.6422788351219726e+00 -1.3042458747676378e+00 0.0000000000000000e+00  1.6877908615409345e+00 -1.3277165420203600e+00 0.0000000000000000e+00  1.7356030046727020e+00 -1.3467212993196349e+00 0.0000000000000000e+00  1.7852567609599184e+00 -1.3608239483839808e+00 0.0000000000000000e+00  1.8363220450017619e+00 -1.3696785062741919e+00 0.0000000000000000e+00  1.8883589992695144e+00 -1.3729937190570762e+00 0.0000000000000000e+00  1.9409431893836409e+00 -1.3705782029359197e+00 0.0000000000000000e+00  1.9937006805283746e+00 -1.3623246696478841e+00 0.0000000000000000e+00  2.0462552427338174e+00 -1.3481530993398789e+00 0.0000000000000000e+00  2.0982531183706730e+00 -1.3280483681847537e+00 0.0000000000000000e+00  2.1494015246455738e+00 -1.3020459705732381e+00 0.0000000000000000e+00  2.1994314558907813e+00 -1.2701736331709974e+00 0.0000000000000000e+00  2.2480996807669555e+00 -1.2324607933151392e+00 0.0000000000000000e+00  2.2952115862276554e+00 -1.1889383691637549e+00 0.0000000000000000e+00  2.3406277441849834e+00 -1.1396054580709281e+00 0.0000000000000000e+00  2.3842293431560520e+00 -1.0843879562903338e+00 0.0000000000000000e+00  2.4259060419134237e+00 -1.0231366856151074e+00 0.0000000000000000e