<?xml version="1.0"?>
<VTKFile type="UnstructuredGrid"  version="0.1"  >
<UnstructuredGrid>
<Piece  NumberOfPoints="81" NumberOfCells="128">
<Points>
<DataArray  type="Float64"  NumberOfComponents="3"  format="ascii">0 0 0  0.125 0 0  0.25 0 0  0.375 0 0  0.5 0 0  0.625 0 0  0.75 0 0  0.875 0 0  1 0 0  0 0.125 0  0.125 0.125 0  0.25 0.125 0  0.375 0.125 0  0.5 0.125 0  0.625 0.125 0  0.75 0.125 0  0.875 0.125 0  1 0.125 0  0 0.25 0  0.125 0.25 0  0.25 0.25 0  0.375 0.25 0  0.5 0.25 0  0.625 0.25 0  0.75 0.25 0  0.875 0.25 0  1 0.25 0  0 0.375 0  0.125 0.375 0  0.25 0.375 0  0.375 0.375 0  0.5 0.375 0  0.625 0.375 0  0.75 0.375 0  0.875 0.375 0  1 0.375 0  0 0.5 0  0.125 0.5 0  0.25 0.5 0  0.375 0.5 0  0.5 0.5 0  0.625 0.5 0  0.75 0.5 0  0.875 0.5 0  1 0.5 0  0 0.625 0  0.125 0.625 0  0.25 0.625 0  0.375 0.625 0  0.5 0.625 0  0.625 0.625 0  0.75 0.625 0  0.875 0.625 0  1 0.625 0  0 0.75 0  0.125 0.75 0  0.25 0.75 0  0.375 0.75 0  0.5 0.75 0  0.625 0.75 0  0.75 0.75 0  0.875 0.75 0  1 0.75 0  0 0.875 0  0.125 0.875 0  0.25 0.875 0  0.375 0.875 0  0.5 0.875 0  0.625 0.875 0  0.75 0.875 0  0.875 0.875 0  1 0.875 0  0 1 0  0.125 1 0  0.25 1 0  0.375 1 0  0.5 1 0  0.625 1 0  0.75 1 0  0.875 1 0  1 1 0  </DataArray>
</Points>
<Cells>
<DataArray  type="UInt32"  Name="connectivity"  format="ascii">0 1 10  0 9 10  1 2 11  1 10 11  2 3 12  2 11 12  3 4 13  3 12 13  4 5 14  4 13 14  5 6 15  5 14 15  6 7 16  6 15 16  7 8 17  7 16 17  9 10 19  9 18 19  10 11 20  10 19 20  11 12 21  11 20 21  12 13 22  12 21 22  13 14 23  13 22 23  14 15 24  14 23 24  15 16 25  15 24 25  16 17 26  16 25 26  18 19 28  18 27 28  19 20 29  19 28 29  20 21 30  20 29 30  21 22 31  21 30 31  22 23 32  22 31 32  23 24 33  23 32 33  24 25 34  24 33 34  25 26 35  25 34 35  27 28 37  27 36 37  28 29 38  28 37 38  29 30 39  29 38 39  30 31 40  30 39 40  31 32 41  31 40 41  32 33 42  32 41 42  33 34 43  33 42 43  34 35 44  34 43 44  36 37 46  36 45 46  37 38 47  37 46 47  38 39 48  38 47 48  39 40 49  39 48 49  40 41 50  40 49 50  41 42 51  41 50 51  42 43 52  42 51 52  43 44 53  43 52 53  45 46 55  45 54 55  46 47 56  46 55 56  47 48 57  47 56 57  48 49 58  48 57 58  49 50 59  49 58 59  50 51 60  50 59 60  51 52 61  51 60 61  52 53 62  52 61 62  54 55 64  54 63 64  55 56 65  55 64 65  56 57 66  56 65 66  57 58 67  57 66 67  58 59 68  58 67 68  59 60 69  59 68 69  60 61 70  60 69 70  61 62 71  61 70 71  63 64 73  63 72 73  64 65 74  64 73 74  65 66 75  65 74 75  66 67 76  66 75 76  67 68 77  67 76 77  68 69 78  68 77 78  69 70 79  69 78 79  70 71 80  70 79 80  </DataArray>
<DataArray  type="UInt32"  Name="offsets"  format="ascii">3 6 9 12 15 18 21 24 27 30 33 36 39 42 45 48 51 54 57 60 63 66 69 72 75 78 81 84 87 90 93 96 99 102 105 108 111 114 117 120 123 126 129 132 135 138 141 144 147 150 153 156 159 162 165 168 171 174 177 180 183 186 189 192 195 198 201 204 207 210 213 216 219 222 225 228 231 234 237 240 243 246 249 252 255 258 261 264 267 270 273 276 279 282 285 288 291 294 297 300 303 306 309 312 315 318 321 324 327 330 333 336 339 342 345 348 351 354 357 360 363 366 369 372 375 378 381 384 </DataArray>
<DataArray  type="UInt8"  Name="types"  format="ascii">5 5 5 5 5 5 5 5 5 5 5 5 5 5 5 5 5 5 5 5 5 5 5 5 5 5 5 5 5 5 5 5 5 5 5 5 5 5 5 5 5 5 5 5 5 5 5 5 5 5 5 5 5 5 5 5 5 5 5 5 5 5 5 5 5 5 5 5 5 5 5 5 5 5 5 5 5 5 5 5 5 5 5 5 5 5 5 5 5 5 5 5 5 5 5 5 5 5 5 5 5 5 5 5 5 5 5 5 5 5 5 5 5 5 5 5 5 5 5 5 5 5 5 5 5 5 5 5 </DataArray>
</Cells>
<<<<<<< HEAD
<PointData  Vectors="f_1151"> 
<DataArray  type="Float64"  Name="f_1151"  NumberOfComponents="3" format="ascii">1.0154977084944530e+00 -1.0078467988716899e+00 0.0000000000000000e+00  1.0314939851342748e+00 -1.0078443146092451e+00 0.0000000000000000e+00  1.0474857648348537e+00 -1.0073345277895451e+00 0.0000000000000000e+00  1.0634654650050916e+00 -1.0063021821607359e+00 0.0000000000000000e+00  1.0794250921199557e+00 -1.0047312874258858e+00 0.0000000000000000e+00  1.0953563030261908e+00 -1.0026052999482118e+00 0.0000000000000000e+00  1.1112504330003996e+00 -9.9990722414494937e-01 0.0000000000000000e+00  1.1270985096416017e+00 -9.9661967886982628e-01 0.0000000000000000e+00  1.1428912603997339e+00 -9.9272494485782670e-01 0.0000000000000000e+00  1.1586191166068598e+00 -9.8820500044932347e-01 0.0000000000000000e+00  1.1742722155838021e+00 -9.8304154944990929e-01 0.0000000000000000e+00  1.1898404012847830e+00 -9.7721604320644906e-01 0.0000000000000000e+00  1.2053132240195061e+00 -9.7070969844098076e-01 0.0000000000000000e+00  1.2206799394300165e+00 -9.6350351181189009e-01 0.0000000000000000e+00  1.2359295069893952e+00 -9.5557827198399503e-01 0.0000000000000000e+00  1.2510505881163527e+00 -9.4691456970753318e-01 0.0000000000000000e+00  1.2660315439221455e+00 -9.3749280632679777e-01 0.0000000000000000e+00  1.2808604328360063e+00 -9.2729320110413183e-01 0.0000000000000000e+00  1.2955250079401863e+00 -9.1629579752475432e-01 0.0000000000000000e+00  1.3100127143191556e+00 -9.0448046889260880e-01 0.0000000000000000e+00  1.3243106860881269e+00 -8.9182692325585811e-01 0.0000000000000000e+00  1.3384057436273000e+00 -8.7831470800683298e-01 0.0000000000000000e+00  1.3522843904849715e+00 -8.6392321401118544e-01 0.0000000000000000e+00  1.3659328105562800e+00 -8.4863167962770991e-01 0.0000000000000000e+00  1.3793368648749178e+00 -8.3241919441068624e-01 0.0000000000000000e+00  1.3924820888585816e+00 -8.1526470291924524e-01 0.0000000000000000e+00  1.4053536891179046e+00 -7.9714700825418661e-01 0.0000000000000000e+00  1.4179365407513633e+00 -7.7804477580430831e-01 0.0000000000000000e+00  1.4302151841644448e+00 -7.5793653679684114e-01 0.0000000000000000e+00  1.4421738225354523e+00 -7.3680069218182187e-01 0.0000000000000000e+00  1.4537963187392777e+00 -7.1461551629092523e-01 0.0000000000000000e+00  1.4650661929149886e+00 -6.9135916087605753e-01 0.0000000000000000e+00  1.4759666194900736e+00 -6.6700965897775533e-01 0.0000000000000000e+00  1.4864804249789407e+00 -6.4154492923953943e-01 0.0000000000000000e+00  1.4965900851657674e+00 -6.1494277999509206e-01 0.0000000000000000e+00  1.5062777230261417e+00 -5.8718091382677018e-01 0.0000000000000000e+00  1.5155251060809318e+00 -5.5823693196540214e-01 0.0000000000000000e+00  1.5243136445720982e+00 -5.2808833919246001e-01 0.0000000000000000e+00  1.5326243890064208e+00 -4.9671254853986696e-01 0.0000000000000000e+00  1.5404380284555481e+00 -4.6408688652385904e-01 0.0000000000000000e+00  1.5477348883228972e+00 -4.3018859828279249e-01 0.0000000000000000e+00  1.5544949288969261e+00 -3.9499485326801620e-01 0.0000000000000000e+00  1.5606977433229294e+00 -3.5848275083784847e-01 0.0000000000000000e+00  1.5663225562787788e+00 -3.2062932646443776e-01 0.0000000000000000e+00  1.5713482222185420e+00 -2.8141155799717188e-01 0.0000000000000000e+00  1.5757532242954504e+00 -2.4080637255635723e-01 0.0000000000000000e+00  1.5795156728456416e+00 -1.9879065353835740e-01 0.0000000000000000e+00  1.5826133044763493e+00 -1.5534124832754534e-01 0.0000000000000000e+00  1.5850234809088273e+00 -1.1043497628597217e-01 0.0000000000000000e+00  1.5867231884045010e+00 -6.4048637439204081e-02 0.0000000000000000e+00  1.5876890369957610e+00 -1.6159021468749785e-02 0.0000000000000000e+00  1.5878972603231503e+00 3.3257082599657130e-02 0.0000000000000000e+00  1.5873237155630981e+00 8.4222876403942007e-02 0.0000000000000000e+00  1.5859438840747415e+00 1.3676154181852559e-01 0.0000000000000000e+00  1.5837328724090889e+00 1.9089623056573335e-01 0.0000000000000000e+00  1.5806654144895922e+00 2.4665005397000495e-01 0.0000000000000000e+00  1.5767158748533343e+00 3.0404607374510845e-01 0.0000000000000000e+00  1.5718582540846151e+00 3.6310729458551405e-01 0.0000000000000000e+00  1.5660661966344684e+00 4.2385666035342007e-01 0.0000000000000000e+00  1.5593130039722662e+00 4.8631705593153668e-01 0.0000000000000000e+00  1.5515716552194938e+00 5.5051131981114443e-01 0.0000000000000000e+00  1.5428148422722741e+00 6.1646227473249215e-01 0.0000000000000000e+00  1.5330150373134548e+00 6.8419279098917185e-01 0.0000000000000000e+00  1.5221446437226187e+00 7.5372592175672259e-01 0.0000000000000000e+00  1.4749561359848093e+00 8.2508521819895597e-01 0.0000000000000000e+00  1.0310855705680593e+00 -1.0237180765603446e+00 0.0000000000000000e+00  1.0473332089758429e+00 -1.0237104625857290e+00 0.0000000000000000e+00  1.0635758960882522e+00 -1.0231881817490114e+00 0.0000000000000000e+00  1.0798061729939743e+00 -1.0221355144906175e+00 0.0000000000000000e+00  1.0960161585778796e+00 -1.0205361045319150e+00 0.0000000000000000e+00  1.1121975809783029e+00 -1.0183730752641524e+00 0.0000000000000000e+00  1.1283418016074187e+00 -1.0156291145384193e+00 0.0000000000000000e+00  1.1444398331289387e+00 -1.0122865342051464e+00 0.0000000000000000e+00  1.1604823525523935e+00 -1.0083273137094646e+00 0.0000000000000000e+00  1.1764597103209469e+00 -1.0037331334293975e+00 0.0000000000000000e+00  1.1923619367561966e+00 -9.9848540096040284e-01 0.0000000000000000e+00  1.2081787463692577e+00 -9.9256527200675781e-01 0.0000000000000000e+00  1.2238995406140591e+00 -9.8595366735029832e-01 0.0000000000000000e+00  1.2395134093913933e+00 -9.7863128676440081e-01 0.0000000000000000e+00  1.2550091316519720e+00 -9.7057862060418765e-01 0.0000000000000000e+00  1.2703751751963586e+00 -9.6177595949976413e-01 0.0000000000000000e+00  1.2855996959007245e+00 -9.5220340257126956e-01 0.0000000000000000e+00  1.3006705364287099e+00 -9.4184086452354654e-01 0.0000000000000000e+00  1.3155752246461785e+00 -9.3066808178718241e-01 0.0000000000000000e+00  1.3303009716056815e+00 -9.1866461795547938e-01 0.0000000000000000e+00  1.3448346693867164e+00 -9.0580986862380386e-01 0.0000000000000000e+00  1.3591628886596854e+00 -8.9208306590776654e-01 0.0000000000000000e+00  1.3732718762435305e+00 -8.7746328254554973e-01 0.0000000000000000e+00  1.3871475523431545e+00 -8.6192943584658832e-01 0.0000000000000000e+00  1.4007755078902608e+00 -8.4546029141532653e-01 0.0000000000000000e+00  1.4141410016965050e+00 -8.2803446694773464e-01 0.0000000000000000e+00  1.4272289577747035e+00 -8.0963043581858285e-01 0.0000000000000000e+00  1.4400239623626976e+00 -7.9022653079847327e-01 0.0000000000000000e+00  1.4525102612261835e+00 -7.6980094769623819e-01 0.0000000000000000e+00  1.4646717568026060e+00 -7.4833174926847978e-01 0.0000000000000000e+00  1.4764920056276203e+00 -7.2579686897874063e-01 0.0000000000000000e+00  1.4879542154591219e+00 -7.0217411503050642e-01 0.0000000000000000e+00  1.4990412428057538e+00 -6.7744117437673657e-01 0.0000000000000000e+00  1.5097355903009619e+00 -6.5157561708203005e-01 0.0000000000000000e+00  1.5200194044252107e+00 -6.2455490054138785e-01 0.0000000000000000e+00  1.5298744729220404e+00 -5.9635637404976805e-01 0.0000000000000000e+00  1.5392822226940375e+00 -5.6695728337456031e-01 0.0000000000000000e+00  1.5482237175408555e+00 -5.3633477571927424e-01 0.0000000000000000e+00  1.5566796562708518e+00 -5.0446590457235241e-01 0.0000000000000000e+00  1.5646303705145261e+00 -4.7132763496649549e-01 0.0000000000000000e+00  1.5720558230517030e+00 -4.3689684880775836e-01 0.0000000000000000e+00  1.5789356059801674e+00 -4.0115035063822047e-01 0.0000000000000000e+00  1.5852489392577027e+00 -3.6406487339006438e-01 0.0000000000000000e+00  1.5909746689896445e+00 -3.2561708464056149e-01 0.0000000000000000e+00  1.5960912662342037e+00 -2.8578359308188866e-01 0.0000000000000000e+00  1.6005768256950683e+00 -2.4454095551228600e-01 0.0000000000000000e+00  1.6044090647978480e+00 -2.0186568402624097e-01 0.0000000000000000e+00  1.6075653226467552e+00 -1.5773425383364723e-01 0.0000000000000000e+00  1.6100225595595716e+00 -1.1212311150964081e-01 0.0000000000000000e+00  1.6117573566602013e+00 -6.5008683867861169e-02 0.0000000000000000e+00  1.6127459160681732e+00 -1.6367387262152991e-02 0.0000000000000000e+00  1.6129640613003760e+00 3.3824362439226388e-02 0.0000000000000000e+00  1.6123872386982439e+00 8.5590139354780770e-02 0.0000000000000000e+00  1.6109905195223955e+00 1.3895349663134746e-01 0.0000000000000000e+00  1.6087486035460028e+00 1.9393795524275684e-01 0.0000000000000000e+00  1.6056358242605278e+00 2.5056699270346416e-01 0.0000000000000000e+00  1.6016261568278480e+00 3.0886403232396714e-01 0.0000000000000000e+00  1.5966932293394209e+00 3.6885243367092230e-01 0.0000000000000000e+00  1.5908103395525908e+00 4.3055548550100747e-01 0.0000000000000000e+00  1.5839504790136760e+00 4.9399640280670848e-01 0.0000000000000000e+00  1.5760863685331299e+00 5.5919833133632135e-01 0.0000000000000000e+00  1.5671905099572401e+00 6.2618436478680917e-01 0.0000000000000000e+00  1.5572352621508263e+00 6.9497758421448907e-01 0.0000000000000000e+00  1.5461929564701751e+00 7.6560113925892515e-01 0.0000000000000000e+00  1.4982561346740664e+00 8.3807841977433473e-01 0.0000000000000000e+00  1.0469385759895813e+00 -1.0398392905049405e+00 0.0000000000000000e+00  1.0634412859958271e+00 -1.0398260864093389e+00 0.0000000000000000e+00  1.0799385862658029e+00 -1.0392907199169465e+00 0.0000000000000000e+00  1.0964230784680999e+00 -1.0382171905710980e+00 0.0000000000000000e+00  1.1128869404732602e+00 -1.0365888031160808e+00 0.0000000000000000e+00  1.1293219437721107e+00 -1.0343883302285435e+00 0.0000000000000000e+00  1.1457194680082856e+00 -1.0315981111354209e+00 0.0000000000000000e+00  1.1620705164412737e+00 -1.0282001161030609e+00 0.0000000000000000e+00  1.1783657288084515e+00 -1.0241759905798300e+00 0.0000000000000000e+00  1.1945953919123911e+00 -1.0195070874778944e+00 0.0000000000000000e+00  1.2107494482018413e+00 -1.0141744919941276e+00 0.0000000000000000e+00  1.2268175024145267e+00 -1.0081590411399808e+00 0.0000000000000000e+00  1.2427888265360671e+00 -1.0014413394983961e+00 0.0000000000000000e+00  1.2586523633184268e+00 -9.9400177211711116e-01 0.0000000000000000e+00  1.2743967286733180e+00 -9.8582051525449799e-01 0.0000000000000000e+00  1.2900102130326203e+00 -9.7687754535785476e-01 0.0000000000000000e+00  1.3054807818754905e+00 -9.6715264671371204e-01 0.0000000000000000e+00  1.3207960756084169e+00 -9.5662541806045442e-01 0.0000000000000000e+00  1.3359434088549940e+00 -9.4527527836608027e-01 0.0000000000000000e+00  1.3509097693443870e+00 -9.3308147193545488e-01 0.0000000000000000e+00  1.3656818162739848e+00 -9.2002307301401332e-01 0.0000000000000000e+00  1.3802458785358549e+00 -9.0607899008768311e-01 0.0000000000000000e+00  1.3945879525218725e+00 -8.9122796985252661e-01 0.0000000000000000e+00  1.4086936999380180e+00 -8.7544860102111566e-01 0.0000000000000000e+00  1.4225484451700705e+00 -8.5871931797878920e-01 0.0000000000000000e+00  1.4361371728691845e+00 -8.4101840449954224e-01 0.0000000000000000e+00  1.4494445251281332e+00 -8.2232399732541461e-01 0.0000000000000000e+00  1.4624547989700443e+00 -8.0261408984638982e-01 0.0000000000000000e+00  1.4751519433790725e+00 -7.8186653577448173e-01 0.0000000000000000e+00  1.4875195568071355e+00 -7.6005905305279053e-01 0.0000000000000000e+00  1.4995408842369837e+00 -7.3716922768276794e-01 0.0000000000000000e+00  1.5111988147712756e+00 -7.1317451778376106e-01 0.0000000000000000e+00  1.5224758787467663e+00 -6.8805225769872513e-01 0.0000000000000000e+00  1.5333542454845850e+00 -6.6177966240348063e-01 0.0000000000000000e+00  1.5438157205713954e+00 -6.3433383184218484e-01 0.0000000000000000e+00  1.5538417437889989e+00 -6.0569175556161792e-01 0.0000000000000000e+00  1.5634133865865216e+00 -5.7583031742398516e-01 0.0000000000000000e+00  1.5725113502465127e+00 -5.4472630064457539e-01 0.0000000000000000e+00  1.5811159636050947e+00 -5.1235639279046863e-01 0.0000000000000000e+00  1.5892071814489310e+00 -4.7869719112904868e-01 0.0000000000000000e+00  1.5967645825363270e+00 -4.4372520813319322e-01 0.0000000000000000e+00  1.6037673682815026e+00 -4.0741687733931919e-01 0.0000000000000000e+00  1.6101943610965908e+00 -3.6974855928769929e-01 0.0000000000000000e+00  1.6160240033711177e+00 -3.3069654789889946e-01 0.0000000000000000e+00  1.6212343562650411e+00 -2.9023707717614983e-01 0.0000000000000000e+00  1.6258030990954817e+00 -2.4834632834589376e-01 0.0000000000000000e+00  1.6297075286361684e+00 -2.0500043732198070e-01 0.0000000000000000e+00  1.6329245590572166e+00 -1.6017550275896336e-01 0.0000000000000000e+00  1.6354307220532940e+00 -1.1384759469384580e-01 0.0000000000000000e+00  1.6372021676940505e+00 -6.5992763783532388e-02 0.0000000000000000e+00  1.6382146656970795e+00 -1.6587051163120162e-02 0.0000000000000000e+00  1.6384436077626510e+00 3.4393500942374748e-02 0.0000000000000000e+00  1.6378640109311877e+00 8.6972837786137847e-02 0.0000000000000000e+00  1.6364505225208394e+00 1.4117488001759079e-01 0.0000000000000000e+00  1.6341774269875846e+00 1.9702351086642034e-01 0.0000000000000000e+00  1.6310186555384978e+00 2.5454256279939635e-01 0.0000000000000000e+00  1.6269477992509558e+00 3.1375580386066937e-01 0.0000000000000000e+00  1.6219381270466036e+00 3.7468692426328049e-01 0.0000000000000000e+00  1.6159626100371605e+00 4.3735952388049160e-01 0.0000000000000000e+00  1.6089939544251513e+00 5.0179710221127205e-01 0.0000000000000000e+00  1.6010046451212683e+00 5.6802305366455363e-01 0.0000000000000000e+00  1.5919670029403732e+00 6.3606067483556783e-01 0.0000000000000000e+00  1.5818532596272397e+00 7.0593319708196911e-01 0.0000000000000000e+00  1.5706356612791188e+00 7.7766387747944776e-01 0.0000000000000000e+00  1.5219399510838671e+00 8.5127623450173162e-01 0.0000000000000000e+00  1.0630611258549898e+00 -1.0562143766287975e+00 0.0000000000000000e+00  1.0798226589667861e+00 -1.0561949253799858e+00 0.0000000000000000e+00  1.0965782937335282e+00 -1.0556458613712574e+00 0.0000000000000000e+00  1.1133206790363164e+00 -1.0545508851027234e+00 0.0000000000000000e+00  1.1300420263225954e+00 -1.0528929669003892e+00 0.0000000000000000e+00  1.1467341265119675e+00 -1.0506545236864355e+00 0.0000000000000000e+00  1.1633883636435667e+00 -1.0478175316594793e+00 0.0000000000000000e+00  1.1799957264228691e+00 -1.0443635988509670e+00 0.0000000000000000e+00  1.1965468190782302e+00 -1.0402740131367207e+00 0.0000000000000000e+00  1.2130318717841486e+00 -1.0355297759975297e+00 0.0000000000000000e+00  1.2294407495986370e+00 -1.0301116271649673e+00 0.0000000000000000e+00  1.2457629599762701e+00 -1.0240000634029880e+00 0.0000000000000000e+00  1.2619876589734016e+00 -1.0171753532680414e+00 0.0000000000000000e+00  1.2781036560779393e+00 -1.0096175489781813e+00 0.0000000000000000e+00  1.2940994178881695e+00 -1.0013064961937033e+00 0.0000000000000000e+00  1.3099630706099936e+00 -9.9222184212407449e-01 0.0000000000000000e+00  1.3256824018146296e+00 -9.8234304246760473e-01 0.0000000000000000e+00  1.3412448611017134e+00 -9.7164936732852092e-01 0.0000000000000000e+00  1.3566375604559429e+00 -9.6011990651386137e-01 0.0000000000000000e+00  1.3718472735262663e+00 -9.4773357410309511e-01 0.0000000000000000e+00  1.3868604350040410e+00 -9.3446911276982658e-01 0.0000000000000000e+00  1.4016631388737755e+00 -9.2030509763448465e-01 0.0000000000000000e+00  1.4162411371400441e+00 -9.0521994011670170e-01 0.0000000000000000e+00  1.4305798373429757e+00 -8.8919189138422716e-01 0.0000000000000000e+00  1.4446643008798259e+00 -8.7219904601504017e-01 0.0000000000000000e+00  1.4584792400097615e+00 -8.5421934538435285e-01 0.0000000000000000e+00  1.4720090159616730e+00 -8.3523058137070783e-01 0.0000000000000000e+00  1.4852376356319477e+00 -8.1521039977096665e-01 0.0000000000000000e+00  1.4981487496167785e+00 -7.9413630416690839e-01 0.0000000000000000e+00  1.5107256487530920e+00 -7.7198565957196241e-01 0.0000000000000000e+00  1.5229512621867909e+00 -7.4873569654288352e-01 0.0000000000000000e+00  1.5348081539149052e+00 -7.2436351503973706e-01 0.0000000000000000e+00  1.5462785209588743e+00 -6.9884608883190080e-01 0.0000000000000000e+00  1.5573441900157090e+00 -6.7216026970725706e-01 0.0000000000000000e+00  1.5679866157995090e+00 -6.4428279217453066e-01 0.0000000000000000e+00  1.5781868779305945e+00 -6.1519027797169967e-01 0.0000000000000000e+00  1.5879256794778089e+00 -5.8485924111868803e-01 0.0000000000000000e+00  1.5971833441649679e+00 -5.5326609284021366e-01 0.0000000000000000e+00  1.6059398151591973e+00 -5.2038714695152966e-01 0.0000000000000000e+00  1.6141746527088192e+00 -4.8619862518457313e-01 0.0000000000000000e+00  1.6218670332086278e+00 -4.5067666302743686e-01 0.0000000000000000e+00  1.6289957473507348e+00 -4.1379731559854183e-01 0.0000000000000000e+00  1.6355391995358339e+00 -3.7553656396623208e-01 0.0000000000000000e+00  1.6414754066783925e+00 -3.3587032166639313e-01 0.0000000000000000e+00  1.6467819980682545e+00 -2.9477444174813072e-01 0.0000000000000000e+00  1.6514362149915649e+00 -2.5222472415646635e-01 0.0000000000000000e+00  1.6554149112554624e+00 -2.0819692364021883e-01 0.0000000000000000e+00  1.6586945539077342e+00 -1.6266675825465621e-01 0.0000000000000000e+00  1.6612512248084597e+00 -1.1560991853319498e-01 0.0000000000000000e+00  1.6630606228631750e+00 -6.7002077417912503e-02 0.0000000000000000e+00  1.6640980673053942e+00 -1.6818900964081937e-02 0.0000000000000000e+00  1.6643385022244126e+00 3.4963939901824267e-02 0.0000000000000000e+00  1.6637565026792118e+00 8.8370756608270068e-02 0.0000000000000000e+00  1.6623262829428427e+00 1.4342582899164275e-01 0.0000000000000000e+00  1.6600217071525558e+00 2.0015339022017420e-01 0.0000000000000000e+00  1.6568163035894496e+00 2.5857761036517291e-01 0.0000000000000000e+00  1.6526832828389324e+00 3.1872257896766309e-01 0.0000000000000000e+00  1.6475955616582121e+00 3.8061228664913810e-01 0.0000000000000000e+00  1.6415257932027958e+00 4.4427060666451751e-01 0.0000000000000000e+00  1.6344464053693977e+00 5.0972127799935907e-01 0.0000000000000000e+00  1.6263296487093388e+00 5.7698789407106021e-01 0.0000000000000000e+00  1.6171476564726732e+00 6.4609390542184142e-01 0.0000000000000000e+00  1.6068725219400388e+00 7.1706265290581361e-01 0.0000000000000000e+00  1.5954764079559378e+00 7.8991746554572129e-01 0.0000000000000000e+00  1.5460115162773502e+00 8.6468188456943640e-01 0.0000000000000000e+00  1.0794578483790223e+00 -1.0728473328370158e+00 0.0000000000000000e+00  1.0964820333105467e+00 -1.0728208278138547e+00 0.0000000000000000e+00  1.1134997904774779e+00 -1.0722573811971046e+00 0.0000000000000000e+00  1.1305038179619027e+00 -1.0711403216261257e+00 0.0000000000000000e+00  1.1474863501120505e+00 -1.0694522573552008e+00 0.0000000000000000e+00  1.1644391847700959e+00 -1.0671752366942546e+00 0.0000000000000000e+00  1.1813536980685999e+00 -1.0642908613235817e+00 0.0000000000000000e+00  1.1982208555690035e+00 -1.0607803626851098e+00 0.0000000000000000e+00  1.2150312226138020e+00 -1.0566246543093025e+00 0.0000000000000000e+00  1.2317749734792032e+00 -1.0518043677815132e+00 0.0000000000000000e+00  1.2484418998474682e+00 -1.0462998782792823e+00 0.0000000000000000e+00  1.2650214185131889e+00 -1.0400913234135929e+00 0.0000000000000000e+00  1.2815025779510072e+00 -1.0331586174707956e+00 0.0000000000000000e+00  1.2978740637790831e+00 -1.0254814625112356e+00 0.0000000000000000e+00  1.3141242031420017e+00 -1.0170393572832501e+00 0.0000000000000000e+00  1.3302409680932610e+00 -1.0078116044955112e+00 0.0000000000000000e+00  1.3462119779694171e+00 -9.9777731695327876e-01 0.0000000000000000e+00  1.3620245010073808e+00 -9.8691542274948196e-01 0.0000000000000000e+00  1.3776654550498431e+00 -9.7520466990253563e-01 0.0000000000000000e+00  1.3931214077895446e+00 -9.6262363037991638e-01 0.0000000000000000e+00  1.4083785761740319e+00 -9.4915070393070278e-01 0.0000000000000000e+00  1.4234228256267119e+00 -9.3476412151905552e-01 0.0000000000000000e+00  1.4382396684745493e+00 -9.1944194881752439e-01 0.0000000000000000e+00  1.4528142624522260e+00 -9.0316208938328468e-01 0.0000000000000000e+00  1.4671314084272800e+00 -8.8590228808239169e-01 0.0000000000000000e+00  1.4811755484330380e+00 -8.6764013427978626e-01 0.0000000000000000e+00  1.4949307629285871e+00 -8.4835306540117006e-01 0.0000000000000000e+00  1.5083807685701260e+00 -8.2801837025990188e-01 0.0000000000000000e+00  1.5215089151962302e+00 -8.0661319285625543e-01 0.0000000000000000e+00  1.5342981834978215e+00 -7.8411453597786163e-01 0.0000000000000000e+00  1.5467311819106424e+00 -7.6049926531778433e-01 0.0000000000000000e+00  1.5587901443284533e+00 -7.3574411337184209e-01 0.0000000000000000e+00  1.5704569270344440e+00 -7.0982568389555067e-01 0.0000000000000000e+00  1.5817130065658007e+00 -6.8272045617660138e-01 0.0000000000000000e+00  1.5925394768341636e+00 -6.5440478985377204e-01 0.0000000000000000e+00  1.6029170472473440e+00 -6.2485492955689437e-01 0.0000000000000000e+00  1.6128260401179966e+00 -5.9404701009889271e-01 0.0000000000000000e+00  1.6222463891272754e+00 -5.6195706155718284e-01 0.0000000000000000e+00  1.6311576371634626e+00 -5.2856101486754681e-01 0.0000000000000000e+00  1.6395389352260090e+00 -4.9383470737369406e-01 0.0000000000000000e+00  1.6473690407955250e+00 -4.5775388889493029e-01 0.0000000000000000e+00  1.6546263172877207e+00 -4.2029422787546927e-01 0.0000000000000000e+00  1.6612887331346202e+00 -3.8143131802758684e-01 0.0000000000000000e+00  1.6673338619408995e+00 -3.4114068521693702e-01 0.0000000000000000e+00  1.6727388824699088e+00 -2.9939779489671636e-01 0.0000000000000000e+00  1.6774805797461154e+00 -2.5617805998817361e-01 0.0000000000000000e+00  1.6815353462645162e+00 -2.1145684935678774e-01 0.0000000000000000e+00  1.6848791844202029e+00 -1.6520949701381721e-01 0.0000000000000000e+00  1.6874877093906018e+00 -1.1741131206330532e-01 0.0000000000000000e+00  1.6893361535467135e+00 -6.8037589679299848e-02 0.0000000000000000e+00  1.6903993717612589e+00 -1.7063623016334354e-02 0.0000000000000000e+00  1.6906518487994904e+00 3.5535283443203655e-02 0.0000000000000000e+00  1.6900677083146214e+00 8.9783799286111549e-02 0.0000000000000000e+00  1.6886207246571543e+00 1.4570655180780356e-01 0.0000000000000000e+00  1.6862843374152370e+00 2.0332810807416937e-01 0.0000000000000000e+00  1.6830316699177206e+00 2.6267295485312736e-01 0.0000000000000000e+00  1.6788355520773517e+00 3.2376547688360929e-01 0.0000000000000000e+00  1.6736685488666778e+00 3.8662993337384971e-01 0.0000000000000000e+00  1.6675029946569437e+00 4.5129043402321634e-01 0.0000000000000000e+00  1.6603110355066775e+00 5.1777091646690887e-01 0.0000000000000000e+00  1.6520646801952661e+00 5.8609513017411652e-01 0.0000000000000000e+00  1.6427358637687495e+00 6.5628663510653729e-01 0.0000000000000000e+00  1.6322965310738464e+00 7.2836883009627129e-01 0.0000000000000000e+00  1.6207187559045990e+00 8.0236503385486058e-01 0.0000000000000000e+00  1.5704743491808872e+00 8.7829864290782156e-01 0.0000000000000000e+00  1.0961335272140136e+00 -1.0897422199925357e+00 0.0000000000000000e+00  1.1134242857980077e+00 -1.0897077458671360e+00 0.0000000000000000e+00  1.1307080462898378e+00 -1.0891291489333583e+00 0.0000000000000000e+00  1.1479775575726732e+00 -1.0879893086854948e+00 0.0000000000000000e+00  1.1652250751711255e+00 -1.0862704275131867e+00 0.0000000000000000e+00  1.1824423970139166e+00 -1.0839541614826436e+00 0.0000000000000000e+00  1.1996208829493011e+00 -1.0810217218714377e+00 0.0000000000000000e+00  1.2167514682902145e+00 -1.0774539503874367e+00 0.0000000000000000e+00  1.2338246741056613e+00 -1.0732313725109337e+00 0.0000000000000000e+00  1.2508306160972036e+00 -1.0683342350748097e+00 0.0000000000000000e+00  1.2677590127384377e+00 -1.0627425330120117e+00 0.0000000000000000e+00  1.2845991925511784e+00 -1.0564360285983525e+00 0.0000000000000000e+00  1.3013401006324969e+00 -1.0493942656017388e+00 0.0000000000000000e+00  1.3179703042935629e+00 -1.0415965799446603e+00 0.0000000000000000e+00  1.3344779977106902e+00 -1.0330221079489557e+00 0.0000000000000000e+00  1.3508510057196814e+00 -1.0236497929030655e+00 0.0000000000000000e+00  1.3670767866414306e+00 -1.0134583903988437e+00 0.0000000000000000e+00  1.3831424343253604e+00 -1.0024264728507870e+00 0.0000000000000000e+00  1.3990346793645361e+00 -9.9053243337154639e-01 0.0000000000000000e+00  1.4147398896414365e+00 -9.7775448927556785e-01 0.0000000000000000e+00  1.4302440702321109e+00 -9.6407068525059747e-01 0.0000000000000000e+00  1.4455328627594488e+00 -9.4945889643489101e-01 0.0000000000000000e+00  1.4605915442842994e+00 -9.3389683134111190e-01 0.0000000000000000e+00  1.4754050257557170e+00 -9.1736203484957113e-01 0.0000000000000000e+00  1.4899578501755408e+00 -8.9983189115566231e-01 0.0000000000000000e+00  1.5042341904095307e+00 -8.8128362691487261e-01 0.0000000000000000e+00  1.5182178468720520e+00 -8.6169431439963318e-01 0.0000000000000000e+00  1.5318922449259773e+00 -8.4104087491675950e-01 0.0000000000000000e+00  1.5452404323078102e+00 -8.1930008227306528e-01 0.0000000000000000e+00  1.5582450763216449e+00 -7.9644856656382956e-01 0.0000000000000000e+00  1.5708884611952150e+00 -7.7246281802036054e-01 0.0000000000000000e+00  1.5831524852431609e+00 -7.4731919119015611e-01 0.0000000000000000e+00  1.5950186583222634e+00 -7.2099390919006212e-01 0.0000000000000000e+00  1.6064680991300193e+00 -6.9346306832259819e-01 0.0000000000000000e+00  1.6174815329145777e+00 -6.6470264276460989e-01 0.0000000000000000e+00  1.6280392890552227e+00 -6.3468848961092483e-01 0.0000000000000000e+00  1.6381212991694341e+00 -6.0339635401487757e-01 0.0000000000000000e+00  1.6477070951290325e+00 -5.7080187471100596e-01 0.0000000000000000e+00  1.6567758077142707e+00 -5.3688058965773655e-01 0.0000000000000000e+00  1.6653061652219125e+00 -5.0160794207274062e-01 0.0000000000000000e+00  1.6732764928241286e+00 -4.6495928665892305e-01 0.0000000000000000e+00  1.6806647119582012e+00 -4.2690989628538628e-01 0.0000000000000000e+00  1.6874483405995457e+00 -3.8743496894574453e-01 0.0000000000000000e+00  1.6936044936727332e+00 -3.4650963524863299e-01 0.0000000000000000e+00  1.6991098844969121e+00 -3.0410896634993462e-01 0.0000000000000000e+00  1.7039408265567431e+00 -2.6020798255937155e-01 0.0000000000000000e+00  1.7080732365120790e+00 -2.1478166258386155e-01 0.0000000000000000e+00  1.7114826378007895e+00 -1.6780495366249379e-01 0.0000000000000000e+00  1.7141