<?xml version="1.0"?>
<VTKFile type="UnstructuredGrid"  version="0.1"  >
<UnstructuredGrid>
<Piece  NumberOfPoints="729" NumberOfCells="3072">
<Points>
<DataArray  type="Float64"  NumberOfComponents="3"  format="ascii">0 0 0  0.125 0 0  0.25 0 0  0.375 0 0  0.5 0 0  0.625 0 0  0.75 0 0  0.875 0 0  1 0 0  0 0.125 0  0.125 0.125 0  0.25 0.125 0  0.375 0.125 0  0.5 0.125 0  0.625 0.125 0  0.75 0.125 0  0.875 0.125 0  1 0.125 0  0 0.25 0  0.125 0.25 0  0.25 0.25 0  0.375 0.25 0  0.5 0.25 0  0.625 0.25 0  0.75 0.25 0  0.875 0.25 0  1 0.25 0  0 0.375 0  0.125 0.375 0  0.25 0.375 0  0.375 0.375 0  0.5 0.375 0  0.625 0.375 0  0.75 0.375 0  0.875 0.375 0  1 0.375 0  0 0.5 0  0.125 0.5 0  0.25 0.5 0  0.375 0.5 0  0.5 0.5 0  0.625 0.5 0  0.75 0.5 0  0.875 0.5 0  1 0.5 0  0 0.625 0  0.125 0.625 0  0.25 0.625 0  0.375 0.625 0  0.5 0.625 0  0.625 0.625 0  0.75 0.625 0  0.875 0.625 0  1 0.625 0  0 0.75 0  0.125 0.75 0  0.25 0.75 0  0.375 0.75 0  0.5 0.75 0  0.625 0.75 0  0.75 0.75 0  0.875 0.75 0  1 0.75 0  0 0.875 0  0.125 0.875 0  0.25 0.875 0  0.375 0.875 0  0.5 0.875 0  0.625 0.875 0  0.75 0.875 0  0.875 0.875 0  1 0.875 0  0 1 0  0.125 1 0  0.25 1 0  0.375 1 0  0.5 1 0  0.625 1 0  0.75 1 0  0.875 1 0  1 1 0  0 0 0.125  0.125 0 0.125  0.25 0 0.125  0.375 0 0.125  0.5 0 0.125  0.625 0 0.125  0.75 0 0.125  0.875 0 0.125  1 0 0.125  0 0.125 0.125  0.125 0.125 0.125  0.25 0.125 0.125  0.375 0.125 0.125  0.5 0.125 0.125  0.625 0.125 0.125  0.75 0.125 0.125  0.875 0.125 0.125  1 0.125 0.125  0 0.25 0.125  0.125 0.25 0.125  0.25 0.25 0.125  0.375 0.25 0.125  0.5 0.25 0.125  0.625 0.25 0.125  0.75 0.25 0.125  0.875 0.25 0.125  1 0.25 0.125  0 0.375 0.125  0.125 0.375 0.125  0.25 0.375 0.125  0.375 0.375 0.125  0.5 0.375 0.125  0.625 0.375 0.125  0.75 0.375 0.125  0.875 0.375 0.125  1 0.375 0.125  0 0.5 0.125  0.125 0.5 0.125  0.25 0.5 0.125  0.375 0.5 0.125  0.5 0.5 0.125  0.625 0.5 0.125  0.75 0.5 0.125  0.875 0.5 0.125  1 0.5 0.125  0 0.625 0.125  0.125 0.625 0.125  0.25 0.625 0.125  0.375 0.625 0.125  0.5 0.625 0.125  0.625 0.625 0.125  0.75 0.625 0.125  0.875 0.625 0.125  1 0.625 0.125  0 0.75 0.125  0.125 0.75 0.125  0.25 0.75 0.125  0.375 0.75 0.125  0.5 0.75 0.125  0.625 0.75 0.125  0.75 0.75 0.125  0.875 0.75 0.125  1 0.75 0.125  0 0.875 0.125  0.125 0.875 0.125  0.25 0.875 0.125  0.375 0.875 0.125  0.5 0.875 0.125  0.625 0.875 0.125  0.75 0.875 0.125  0.875 0.875 0.125  1 0.875 0.125  0 1 0.125  0.125 1 0.125  0.25 1 0.125  0.375 1 0.125  0.5 1 0.125  0.625 1 0.125  0.75 1 0.125  0.875 1 0.125  1 1 0.125  0 0 0.25  0.125 0 0.25  0.25 0 0.25  0.375 0 0.25  0.5 0 0.25  0.625 0 0.25  0.75 0 0.25  0.875 0 0.25  1 0 0.25  0 0.125 0.25  0.125 0.125 0.25  0.25 0.125 0.25  0.375 0.125 0.25  0.5 0.125 0.25  0.625 0.125 0.25  0.75 0.125 0.25  0.875 0.125 0.25  1 0.125 0.25  0 0.25 0.25  0.125 0.25 0.25  0.25 0.25 0.25  0.375 0.25 0.25  0.5 0.25 0.25  0.625 0.25 0.25  0.75 0.25 0.25  0.875 0.25 0.25  1 0.25 0.25  0 0.375 0.25  0.125 0.375 0.25  0.25 0.375 0.25  0.375 0.375 0.25  0.5 0.375 0.25  0.625 0.375 0.25  0.75 0.375 0.25  0.875 0.375 0.25  1 0.375 0.25  0 0.5 0.25  0.125 0.5 0.25  0.25 0.5 0.25  0.375 0.5 0.25  0.5 0.5 0.25  0.625 0.5 0.25  0.75 0.5 0.25  0.875 0.5 0.25  1 0.5 0.25  0 0.625 0.25  0.125 0.625 0.25  0.25 0.625 0.25  0.375 0.625 0.25  0.5 0.625 0.25  0.625 0.625 0.25  0.75 0.625 0.25  0.875 0.625 0.25  1 0.625 0.25  0 0.75 0.25  0.125 0.75 0.25  0.25 0.75 0.25  0.375 0.75 0.25  0.5 0.75 0.25  0.625 0.75 0.25  0.75 0.75 0.25  0.875 0.75 0.25  1 0.75 0.25  0 0.875 0.25  0.125 0.875 0.25  0.25 0.875 0.25  0.375 0.875 0.25  0.5 0.875 0.25  0.625 0.875 0.25  0.75 0.875 0.25  0.875 0.875 0.25  1 0.875 0.25  0 1 0.25  0.125 1 0.25  0.25 1 0.25  0.375 1 0.25  0.5 1 0.25  0.625 1 0.25  0.75 1 0.25  0.875 1 0.25  1 1 0.25  0 0 0.375  0.125 0 0.375  0.25 0 0.375  0.375 0 0.375  0.5 0 0.375  0.625 0 0.375  0.75 0 0.375  0.875 0 0.375  1 0 0.375  0 0.125 0.375  0.125 0.125 0.375  0.25 0.125 0.375  0.375 0.125 0.375  0.5 0.125 0.375  0.625 0.125 0.375  0.75 0.125 0.375  0.875 0.125 0.375  1 0.125 0.375  0 0.25 0.375  0.125 0.25 0.375  0.25 0.25 0.375  0.375 0.25 0.375  0.5 0.25 0.375  0.625 0.25 0.375  0.75 0.25 0.375  0.875 0.25 0.375  1 0.25 0.375  0 0.375 0.375  0.125 0.375 0.375  0.25 0.375 0.375  0.375 0.375 0.375  0.5 0.375 0.375  0.625 0.375 0.375  0.75 0.375 0.375  0.875 0.375 0.375  1 0.375 0.375  0 0.5 0.375  0.125 0.5 0.375  0.25 0.5 0.375  0.375 0.5 0.375  0.5 0.5 0.375  0.625 0.5 0.375  0.75 0.5 0.375  0.875 0.5 0.375  1 0.5 0.375  0 0.625 0.375  0.125 0.625 0.375  0.25 0.625 0.375  0.375 0.625 0.375  0.5 0.625 0.375  0.625 0.625 0.375  0.75 0.625 0.375  0.875 0.625 0.375  1 0.625 0.375  0 0.75 0.375  0.125 0.75 0.375  0.25 0.75 0.375  0.375 0.75 0.375  0.5 0.75 0.375  0.625 0.75 0.375  0.75 0.75 0.375  0.875 0.75 0.375  1 0.75 0.375  0 0.875 0.375  0.125 0.875 0.375  0.25 0.875 0.375  0.375 0.875 0.375  0.5 0.875 0.375  0.625 0.875 0.375  0.75 0.875 0.375  0.875 0.875 0.375  1 0.875 0.375  0 1 0.375  0.125 1 0.375  0.25 1 0.375  0.375 1 0.375  0.5 1 0.375  0.625 1 0.375  0.75 1 0.375  0.875 1 0.375  1 1 0.375  0 0 0.5  0.125 0 0.5  0.25 0 0.5  0.375 0 0.5  0.5 0 0.5  0.625 0 0.5  0.75 0 0.5  0.875 0 0.5  1 0 0.5  0 0.125 0.5  0.125 0.125 0.5  0.25 0.125 0.5  0.375 0.125 0.5  0.5 0.125 0.5  0.625 0.125 0.5  0.75 0.125 0.5  0.875 0.125 0.5  1 0.125 0.5  0 0.25 0.5  0.125 0.25 0.5  0.25 0.25 0.5  0.375 0.25 0.5  0.5 0.25 0.5  0.625 0.25 0.5  0.75 0.25 0.5  0.875 0.25 0.5  1 0.25 0.5  0 0.375 0.5  0.125 0.375 0.5  0.25 0.375 0.5  0.375 0.375 0.5  0.5 0.375 0.5  0.625 0.375 0.5  0.75 0.375 0.5  0.875 0.375 0.5  1 0.375 0.5  0 0.5 0.5  0.125 0.5 0.5  0.25 0.5 0.5  0.375 0.5 0.5  0.5 0.5 0.5  0.625 0.5 0.5  0.75 0.5 0.5  0.875 0.5 0.5  1 0.5 0.5  0 0.625 0.5  0.125 0.625 0.5  0.25 0.625 0.5  0.375 0.625 0.5  0.5 0.625 0.5  0.625 0.625 0.5  0.75 0.625 0.5  0.875 0.625 0.5  1 0.625 0.5  0 0.75 0.5  0.125 0.75 0.5  0.25 0.75 0.5  0.375 0.75 0.5  0.5 0.75 0.5  0.625 0.75 0.5  0.75 0.75 0.5  0.875 0.75 0.5  1 0.75 0.5  0 0.875 0.5  0.125 0.875 0.5  0.25 0.875 0.5  0.375 0.875 0.5  0.5 0.875 0.5  0.625 0.875 0.5  0.75 0.875 0.5  0.875 0.875 0.5  1 0.875 0.5  0 1 0.5  0.125 1 0.5  0.25 1 0.5  0.375 1 0.5  0.5 1 0.5  0.625 1 0.5  0.75 1 0.5  0.875 1 0.5  1 1 0.5  0 0 0.625  0.125 0 0.625  0.25 0 0.625  0.375 0 0.625  0.5 0 0.625  0.625 0 0.625  0.75 0 0.625  0.875 0 0.625  1 0 0.625  0 0.125 0.625  0.125 0.125 0.625  0.25 0.125 0.625  0.375 0.125 0.625  0.5 0.125 0.625  0.625 0.125 0.625  0.75 0.125 0.625  0.875 0.125 0.625  1 0.125 0.625  0 0.25 0.625  0.125 0.25 0.625  0.25 0.25 0.625  0.375 0.25 0.625  0.5 0.25 0.625  0.625 0.25 0.625  0.75 0.25 0.625  0.875 0.25 0.625  1 0.25 0.625  0 0.375 0.625  0.125 0.375 0.625  0.25 0.375 0.625  0.375 0.375 0.625  0.5 0.375 0.625  0.625 0.375 0.625  0.75 0.375 0.625  0.875 0.375 0.625  1 0.375 0.625  0 0.5 0.625  0.125 0.5 0.625  0.25 0.5 0.625  0.375 0.5 0.625  0.5 0.5 0.625  0.625 0.5 0.625  0.75 0.5 0.625  0.875 0.5 0.625  1 0.5 0.625  0 0.625 0.625  0.125 0.625 0.625  0.25 0.625 0.625  0.375 0.625 0.625  0.5 0.625 0.625  0.625 0.625 0.625  0.75 0.625 0.625  0.875 0.625 0.625  1 0.625 0.625  0 0.75 0.625  0.125 0.75 0.625  0.25 0.75 0.625  0.375 0.75 0.625  0.5 0.75 0.625  0.625 0.75 0.625  0.75 0.75 0.625  0.875 0.75 0.625  1 0.75 0.625  0 0.875 0.625  0.125 0.875 0.625  0.25 0.875 0.625  0.375 0.875 0.625  0.5 0.875 0.625  0.625 0.875 0.625  0.75 0.875 0.625  0.875 0.875 0.625  1 0.875 0.625  0 1 0.625  0.125 1 0.625  0.25 1 0.625  0.375 1 0.625  0.5 1 0.625  0.625 1 0.625  0.75 1 0.625  0.875 1 0.625  1 1 0.625  0 0 0.75  0.125 0 0.75  0.25 0 0.75  0.375 0 0.75  0.5 0 0.75  0.625 0 0.75  0.75 0 0.75  0.875 0 0.75  1 0 0.75  0 0.125 0.75  0.125 0.125 0.75  0.25 0.125 0.75  0.375 0.125 0.75  0.5 0.125 0.75  0.625 0.125 0.75  0.75 0.125 0.75  0.875 0.125 0.75  1 0.125 0.75  0 0.25 0.75  0.125 0.25 0.75  0.25 0.25 0.75  0.375 0.25 0.75  0.5 0.25 0.75  0.625 0.25 0.75  0.75 0.25 0.75  0.875 0.25 0.75  1 0.25 0.75  0 0.375 0.75  0.125 0.375 0.75  0.25 0.375 0.75  0.375 0.375 0.75  0.5 0.375 0.75  0.625 0.375 0.75  0.75 0.375 0.75  0.875 0.375 0.75  1 0.375 0.75  0 0.5 0.75  0.125 0.5 0.75  0.25 0.5 0.75  0.375 0.5 0.75  0.5 0.5 0.75  0.625 0.5 0.75  0.75 0.5 0.75  0.875 0.5 0.75  1 0.5 0.75  0 0.625 0.75  0.125 0.625 0.75  0.25 0.625 0.75  0.375 0.625 0.75  0.5 0.625 0.75  0.625 0.625 0.75  0.75 0.625 0.75  0.875 0.625 0.75  1 0.625 0.75  0 0.75 0.75  0.125 0.75 0.75  0.25 0.75 0.75  0.375 0.75 0.75  0.5 0.75 0.75  0.625 0.75 0.75  0.75 0.75 0.75  0.875 0.75 0.75  1 0.75 0.75  0 0.875 0.75  0.125 0.875 0.75  0.25 0.875 0.75  0.375 0.875 0.75  0.5 0.875 0.75  0.625 0.875 0.75  0.75 0.875 0.75  0.875 0.875 0.75  1 0.875 0.75  0 1 0.75  0.125 1 0.75  0.25 1 0.75  0.375 1 0.75  0.5 1 0.75  0.625 1 0.75  0.75 1 0.75  0.875 1 0.75  1 1 0.75  0 0 0.875  0.125 0 0.875  0.25 0 0.875  0.375 0 0.875  0.5 0 0.875  0.625 0 0.875  0.75 0 0.875  0.875 0 0.875  1 0 0.875  0 0.125 0.875  0.125 0.125 0.875  0.25 0.125 0.875  0.375 0.125 0.875  0.5 0.125 0.875  0.625 0.125 0.875  0.75 0.125 0.875  0.875 0.125 0.875  1 0.125 0.875  0 0.25 0.875  0.125 0.25 0.875  0.25 0.25 0.875  0.375 0.25 0.875  0.5 0.25 0.875  0.625 0.25 0.875  0.75 0.25 0.875  0.875 0.25 0.875  1 0.25 0.875  0 0.375 0.875  0.125 0.375 0.875  0.25 0.375 0.875  0.375 0.375 0.875  0.5 0.375 0.875  0.625 0.375 0.875  0.75 0.375 0.875  0.875 0.375 0.875  1 0.375 0.875  0 0.5 0.875  0.125 0.5 0.875  0.25 0.5 0.875  0.375 0.5 0.875  0.5 0.5 0.875  0.625 0.5 0.875  0.75 0.5 0.875  0.875 0.5 0.875  1 0.5 0.875  0 0.625 0.875  0.125 0.625 0.875  0.25 0.625 0.875  0.375 0.625 0.875  0.5 0.625 0.875  0.625 0.625 0.875  0.75 0.625 0.875  0.875 0.625 0.875  1 0.625 0.875  0 0.75 0.875  0.125 0.75 0.875  0.25 0.75 0.875  0.375 0.75 0.875  0.5 0.75 0.875  0.625 0.75 0.875  0.75 0.75 0.875  0.875 0.75 0.875  1 0.75 0.875  0 0.875 0.875  0.125 0.875 0.875  0.25 0.875 0.875  0.375 0.875 0.875  0.5 0.875 0.875  0.625 0.875 0.875  0.75 0.875 0.875  0.
[...]
<PointData  Vectors="f_134"> 
<DataArray  type="Float64"  Name="f_134"  NumberOfComponents="3" format="ascii">1.6146277450558730e-02 0.0000000000000000e+00 0.0000000000000000e+00  1.4188923290950554e-02 1.5038634735412645e-01 -1.3450718749944396e-01  1.1772366958621477e-02 3.3816092179111179e-01 -3.0960689684910470e-01  9.2092547910783695e-03 5.6729366093591738e-01 -5.3047912241472839e-01  6.6055309463381381e-03 8.4141753522219953e-01 -8.0151914243245803e-01  4.0824047381807990e-03 1.1636041938448034e+00 -1.1262605520576232e+00  2.0344151235766536e-03 1.5360957653580813e+00 -1.5069731116408784e+00  1.3116977665716401e-03 1.9599898569107546e+00 -1.9438884950684292e+00  0.0000000000000000e+00 2.4348756138053491e+00 -2.4348756138053491e+00  -1.2908165219155143e-01 0.0000000000000000e+00 1.5914712669378800e-01  -1.5395082168762464e-01 1.7041005686669883e-01 3.9771658592428649e-02  -1.8243390944081755e-01 3.8318652541525028e-01 -1.2557141426616342e-01  -2.1408336576337331e-01 6.4282793432415131e-01 -3.4340666822327698e-01  -2.4909971363715697e-01 9.5345097842033710e-01 -6.1868479186182257e-01  -2.8784199038050096e-01 1.3185362922373112e+00 -9.5496896187824210e-01  -3.3018766849980019e-01 1.7406245402780101e+00 -1.3538648046648443e+00  -3.7488651693225244e-01 2.2209594743850927e+00 -1.8135009867242415e+00  -3.6075809321776875e-01 2.7828898024758111e+00 -2.3502830599326185e+00  -3.1595185459549724e-01 0.0000000000000000e+00 3.5644242087538763e-01  -3.6897620492409366e-01 1.9309989232552954e-01 2.5144609248142819e-01  -4.2923256725777764e-01 4.3420721851034288e-01 9.5345682498741813e-02  -4.9630929639642590e-01 7.2841947936755524e-01 -1.1923680104570489e-01  -5.7087485043131503e-01 1.0804015012720563e+00 -3.9733465974124815e-01  -6.5400908937849700e-01 1.4940973598611769e+00 -7.4210414447442796e-01  -7.4623986582284474e-01 1.9723860051861850e+00 -1.1542035570101801e+00  -8.4641174311909040e-01 2.5166767927235791e+00 -1.6298142215821549e+00  -8.1120588066983834e-01 3.1761364413570110e+00 -2.2072254857994942e+00  -5.4901337669476691e-01 0.0000000000000000e+00 5.9554570517465566e-01  -6.3568881329073701e-01 2.1881084427604458e-01 5.0336186864029531e-01  -7.3338289470283990e-01 4.9202123796544467e-01 3.5518373613642445e-01  -8.4201295834071088e-01 8.2540740622908848e-01 1.4360319214468131e-01  -9.6301127153927657e-01 1.2242552898575083e+00 -1.3589841810476488e-01  -1.0985536637422297e+00 1.6930341120579242e+00 -4.8568666037532360e-01  -1.2503648066742141e+00 2.2350061506273837e+00 -9.0538827841972713e-01  -1.4178963253363890e+00 2.8517684145439071e+00 -1.3896524727162789e+00  -1.3608667476433187e+00 3.6195201322209911e+00 -2.0006590638278960e+00  -8.3218783555850462e-01 0.0000000000000000e+00 8.7965068466932606e-01  -9.5811344382104202e-01 2.4794516970564623e-01 7.9790671898609267e-01  -1.0989349062882239e+00 5.5753310467656869e-01 6.5576549366542569e-01  -1.2552949006375211e+00 9.3530912551839285e-01 4.4670792098033341e-01  -1.4297040212294279e+00 1.3872629878609146e+00 1.6726552479348822e-01  -1.6257955514306475e+00 1.9184589850678035e+00 -1.8388346473376549e-01  -1.8471579626058554e+00 2.5325937621782622e+00 -6.0535958140749169e-01  -2.0947725978686687e+00 3.2314769674452610e+00 -1.0907690002865613e+00  -2.0184557371552239e+00 4.1183596913767921e+00 -1.7272212198486032e+00  -1.1684744826119451e+00 0.0000000000000000e+00 1.2112361181423836e+00  -1.3392272737825350e+00 2.8095868549734482e-01 1.1367170355631950e+00  -1.5289950466170847e+00 6.3176777509779847e-01 9.9830231210487674e-01  -1.7396686878127015e+00 1.0598440887204537e+00 7.9121981352796777e-01  -1.9749866932164126e+00 1.5719749086914596e+00 5.1333517986306121e-01  -2.2401091525970949e+00 2.1738988312017336e+00 1.6442391800866751e-01  -2.5411040475657334e+00 2.8698047038589904e+00 -2.5320235230754928e-01  -2.8823488951025134e+00 3.6617431267816807e+00 -7.3261634625868410e-01  -2.7913413525708011e+00 4.6784235166147896e+00 -1.3859423866950753e+00  -1.5592771923593753e+00 0.0000000000000000e+00 1.5917711868391822e+00  -1.7801483679437160e+00 3.1836789984700536e-01 1.5207102520397651e+00  -2.0250908627099187e+00 7.1588667704954123e-01 1.3838961600779860e+00  -2.2978307962925664e+00 1.2009606896256018e+00 1.1787392879371987e+00  -2.6032228083001310e+00 1.7812809360435924e+00 9.0423041746314659e-01  -2.9474391362351104e+00 2.4633500977000282e+00 5.6094067221240085e-01  -3.3387847188716666e+00 3.2519147607817183e+00 1.5184501991899024e-01  -3.7876047334634695e+00 4.1492985596407461e+00 -3.1618174384771258e-01  -3.6849021806849853e+00 5.3059732013795919e+00 -9.7909050912995632e-01  -2.0033099743679688e+00 0.0000000000000000e+00 2.0213724254653256e+00  -2.2788030152787138e+00 3.6075809321776875e-01 1.9509976714787576e+00  -2.5860999600425689e+00 8.1120588066983834e-01 1.8157810660207792e+00  -2.9308670505969578e+00 1.3608667476433187e+00 1.6146331170495987e+00  -3.3191870629720124e+00 2.0184557371552239e+00 1.3469827987811018e+00  -3.7580435485410608e+00 2.7913413525708011e+00 1.0134127110343267e+00  -4.2566355035226549e+00 3.6849021806849853e+00 6.1634746259664208e-01  -4.8292221100295949e+00 4.7017712441693220e+00 1.6026064831788567e-01  -4.7017712441693220e+00 6.0078180745266447e+00 -5.1315814183607045e-01  -2.4348756138053491e+00 0.0000000000000000e+00 2.4348756138053491e+00  -2.7828898024758111e+00 3.6075809321776875e-01 2.3502830599326185e+00  -3.1761364413570110e+00 8.1120588066983834e-01 2.2072254857994942e+00  -3.6195201322209911e+00 1.3608667476433187e+00 2.0006590638278960e+00  -4.1183596913767921e+00 2.0184557371552239e+00 1.7272212198486032e+00  -4.6784235166147896e+00 2.7913413525708011e+00 1.3859423866950753e+00  -5.3059732013795919e+00 3.6849021806849853e+00 9.7909050912995632e-01  -6.0078180745266447e+00 4.7017712441693220e+00 5.1315814183607045e-01  -5.8409629538406218e+00 5.8409629538406218e+00 0.0000000000000000e+00  1.8927800846751891e-01 -1.5038634735412645e-01 -8.7607793396615452e-03  2.0675361886352228e-01 1.5622479271966180e-02 -1.6594942644452959e-01  2.2621546726858427e-01 2.1814768015602107e-01 -3.6882950534610026e-01  2.4882888261005329e-01 4.6008201597063431e-01 -6.2307955900458134e-01  2.7524502747098878e-01 7.4433641847671261e-01 -9.3337420215223810e-01  3.0605551261680075e-01 1.0734334835411472e+00 -1.3033692061744120e+00  3.4240089338396557e-01 1.4493805853834696e+00 -1.7353224135407177e+00  3.8682744655335044e-01 1.8739549647638849e+00 -2.2293003718962874e+00  3.6075809321776875e-01 2.3264687926504752e+00 -2.7590755351936678e+00  5.6294077900678509e-02 -1.7041005686669883e-01 1.7041005686669883e-01  5.0018130883925760e-02 1.5472178917424069e-02 2.7608763066620703e-02  4.3035921104570246e-02 2.4277161206626538e-01 -1.6643515640715578e-01  3.6943857751189579e-02 5.1524933937915951e-01 -4.1893108483298702e-01  3.1892542794373577e-02 8.3651759010799720e-01 -7.3505245082352488e-01  2.7602555601372508e-02 1.2096642385534953e+00 -1.1183408125643606e+00  2.4668345758318153e-02 1.6370959028542591e+00 -1.5701162825434261e+00  2.6049426439887266e-02 2.1207579806389529e+00 -2.0878328862875830e+00  2.9585699077132523e-02 2.6632196136318114e+00 -2.6632196136318114e+00  -1.2398440182901248e-01 -1.9309989232552954e-01 3.9265311448022189e-01  -1.5973188524767579e-01 1.6479727177128645e-02 2.6315950261710180e-01  -1.9956664366777049e-01 2.7230869027506632e-01 7.7460938024334958e-02  -2.4172796109068720e-01 5.7970217119460543e-01 -1.7300716684433048e-01  -2.8675793515825032e-01 9.4335080476232180e-01 -4.9360507577902213e-01  -3.3600771204656554e-01 1.3670261779820747e+00 -8.8733371336084454e-01  -3.8966982648733373e-01 1.8532571877977335e+00 -1.3540365765551514e+00  -4.4455294660859168e-01 2.4032832133368300e+00 -1.8880364392981974e+00  -4.1433162647308647e-01 3.0435560423969203e+00 -2.5011141448033691e+00  -3.5690461665614787e-01 -2.1881084427604458e-01 6.6209483582468209e-01  -4.2810179948345323e-01 1.8793305126784749e-02 5.4432982454855960e-01  -5.0678194139051458e-01 3.0752926743149950e-01 3.6582126759438610e-01  -5.9140261749452616e-01 6.5494133409172073e-01 1.1729438667049041e-01  -6.8356620223412301e-01 1.0672063815152366e+00 -2.0629620807835891e-01  -7.8620203425061075e-01 1.5488835416446225e+00 -6.0703005408292954e-01  -9.0105442421420612e-01 2.1022291949729830e+00 -1.0830261012715903e+00  -1.0252353205733105e+00 2.7266664600051382e+00 -1.6254579687990889e+00  -9.7024068852229028e-01 3.4720145423641577e+00 -2.2670437232907048e+00  -6.4684632927286112e-01 -2.4794516970564623e-01 9.8233072932701160e-01  -7.5948827546771558e-01 2.2091423418392306e-02 8.7419458642311032e-01  -8.8276962167089934e-01 3.4835071180640786e-01 7.0134887156528969e-01  -1.0158178625376175e+00 7.4130919035433851e-01 4.5457814983331946e-01  -1.1616534852822764e+00 1.2090570858257794e+00 1.2962197711514500e-01  -1.3253231028716879e+00 1.7571276532742746e+00 -2.7448264003098810e-01  -1.5112517020982901e+00 2.3872378868984763e+00 -7.5414031927064240e-01  -1.7181506099636412e+00 3.0958386881711188e+00 -1.2974800174024619e+00  -1.6419019956775602e+00 3.9534649751771314e+00 -1.9571980533756437e+00  -9.9691188611118875e-01 -2.8095868549734482e-01 1.3561430429864321e+00  -1.1567936249360009e+00 2.5701786046405189e-02 1.2549727920546436e+00  -1.3304062527144200e+00 3.9413730815288273e-01 1.0860885150753474e+00  -1.5182086834726605e+00 8.3843900877358768e-01 8.4108475051183185e-01  -1.7246865234269515e+00 1.3689583198881408e+00 5.1672698046282717e-01  -1.9569927604962745e+00 1.9925277569057429e+00 1.1304413793094481e-01  -2.2232768390905191e+00 2.7105208393225797e+00 -3.6503325629629213e-01  -2.5266566266126889e+00 3.5156183323782408e+00 -9.0300656158480352e-01  -2.4338502372959527e+00 4.4931325727292686e+00 -1.5704784715232700e+00  -1.4076685232805224e+00 -3.1836789984700536e-01 1.7851664879955615e+00  -1.6198847123641784e+00 2.8790894083954331e-02 1.6880103281268706e+00  -1.8499432295949680e+00 4.4425091332475841e-01 1.5218532822479292e+00  -2.1006777860021524e+00 9.4612085225674758e-01 1.2796073308989020e+00  -2.3776449137636058e+00 1.5469983465777479e+00 9.5888585995841447e-01  -2.6889289307923141e+00 2.2553076441898190e+00 5.6015208829578889e-01  -3.0458495255220752e+00 3.0729980890253659e+00 8.8574737779135049e-02  -3.4597399472774875e+00 3.9897774654063607e+00 -4.4056041273515989e-01  -3.3517969613988456e+00 5.0966268440066260e+00 -1.1094548958330217e+00  -1.8747636788647535e+00 -3.6075809321776875e-01 2.2694990198741611e+00  -2.1426701603173774e+00 3.0679146515544192e-02 2.1743702924162820e+00  -2.4362957204470517e+00 4.9904628524899358e-01 2.0119618950975910e+00  -2.7616424063609144e+00 1.0659721658807753e+00 1.7760482586586690e+00  -3.1252507876582181e+00 1.7456937385867768e+00 1.4645083432888573e+00  -3.5351520165102190e+00 2.5479570606308295e+00 1.0775446543807714e+00  -4.0031350009023514e+00 3.4759957737083762e+00 6.1880874395190988e-01  -4.5474455064250643e+00 4.5196009753306381e+00 9.8846580987296484e-02  -4.4080555918825324e+00 5.7699801307663403e+00 -5.8148435460019077e-01  -2.3264687926504752e+00 -3.6075809321776875e-01 2.7590755351936678e+00  -2.6632196136318114e+00 3.0679146515544192e-02 2.6632196136318114e+00  -3.0435560423969203e+00 4.9904628524899358e-01 2.5011141448033691e+00  -3.4720145423641577e+00 1.0659721658807753e+00 2.2670437232907048e+00  -3.9534649751771314e+00 1.7456937385867768e+00 1.9571980533756437e+00  -4.4931325727292686e+00 2.5479570606308295e+00 1.5704784715232700e+00  -5.0966268440066260e+00 3.4759957737083762e+00 1.1094548958330217e+00  -5.7699801307663403e+00 4.5196009753306381e+00 5.8148435460019077e-01  -5.6380359663017519e+00 5.7149291061649024e+00 0.0000000000000000e+00  3.9707636700261106e-01 -3.3816092179111179e-01 -1.8281499084275843e-02  4.3888944612340181e-01 -1.6206826319389092e-01 -2.0092607455743780e-01  4.8604830568229290e-01 5.0330024578981135e-02 -4.3550910548075933e-01  5.4056504726814458e-01 3.0064677233058568e-01 -7.2759596861527454e-01  6.0370837442845715e-01 5.9121851606853459e-01 -1.0819266024659067e+00  6.7657894528562590e-01 9.2433190569205970e-01 -1.5022907219801931e+00  7.6099286029250335e-01 1.3021759505278008e+00 -1.9912564462118976e+00  8.6092756824650207e-01 1.7277037355798439e+00 -2.5496289248668234e+00  8.1120588066983834e-01 2.1575312190417160e+00 -3.1264421745992328e+00  2.7527474363045956e-01 -3.8318652541525028e-01 1.8363330326055793e-01  2.9259442238687294e-01 -1.8805297874412882e-01 1.5560252519001588e-02  3.1285699782702137e-01 4.8539535010280174e-02 -2.1097657353240051e-01  3.3872182871774215e-01 3.2907706848208540e-01 -5.0263285735423358e-01  3.7076981799643777e-01 6.5669114165955089e-01 -8.6430266339709783e-01  4.0891970345204443e-01 1.0343628779096197e+00 -1.2994204864028360e+00  4.5428850278783212e-01 1.4648925479262813e+00 -1.8095594078810917e+00  5.1164444281986565e-01 1.9517776025141367e+00 -2.3931737130158228e+00  4.9699889374703671e-01 2.4753812877705714e+00 -3.0178231853641222e+00  1.0084063277544884e-01 -4.3420721851034288e-01 4.3420721851034288e-01  8.7732042102485100e-02 -2.1590513965154312e-01 2.7918016010498553e-01  7.4222461959616876e-02 4.8635750865204705e-02 6.0129675893547105e-02  6.3335644673241959e-02 3.6372685763216611e-01 -2.3090232985466894e-01  5.4843179769815315e-02 7.3384036848878476e-01 -5.9885776395974100e-01  4.7447400540263390e-02 1.1628121059434886e+00 -1.0463341645549957e+00  4.1580283503498155e-02 1.6536698927823905e+00 -1.5729001666504536e+00  4.2636370731695475e-02 2.2093413592187701e+00 -2.1731335702632788e+00  5.7388312617272716e-02 2.8341336241274986e+00 -2.8341336241274986e+00  -1.3194431760680003e-01 -4.9202123796544467e-01 7.3809639802951033e-01  -1.8192712548205478e-01 -2.4574818989006300e-01 5.9484995410318031e-01  -2.3564362579315040e-01 5.1323985181333735e-02 3.8243030789030596e-01  -2.9010630787351582e-01 4.0627531592585386e-01 9.2116359195818398e-02  -3.4669930297517643e-01 8.2553141950770659e-01 -2.8069396107036437e-01  -4.0843355558885863e-01 1.3138958487281507e+00 -7.3732716799409392e-01  -4.7637914787829611e-01 1.8739464322275989e+00 -1.2747538353160410e+00  -5.4519561259361704e-01 2.5063156471391141e+00 -1.8830256287614504e+00  -5.0477383436247680e-01 3.2377987241190187e+00 -2.5688970880817177e+00  -4.2742543134740008e-01 -5.5753310467656869e-01 1.0993527405216588e+00  -5.2079095327756719e-01 -2.7863424304513523e-01 9.6662988123032600e-01  -6.2079219942799724e-01 5.5598992397139765e-02 7.5997038774344194e-01  -7.2495131175213889e-01 4.5599332828495465e-01 4.7068106027372603e-01  -8.3617345734729698e-01 9.3159414889731207e-01 9.4887017550812747e-02  -9.5979494119639408e-01 1.4884264352263092e+00 -3.6733032322077297e-01  -1.0997108715516355e+00 2.1280960265068778e+00 -9.1024983032492757e-01  -1.2520829945391077e+00 2.8470618966435790e+00 -1.5190507543302201e+00  -1.1905932691489733e+00 3.6906144169480175e+00 -2.2177959465280126e+00  -7.8835026867010782e-01 -6.3176777509779847e-01 1.5211036245450171e+00  -9.3115918271357578e-01 -3.1623502190913605e-01 1.3972579042979756e+00  -1.0831699773202987e+00 5.9458359573492936e-02 1.1955364919483880e+00  -1.2432382628751912e+00 5.1081553651680867e-01 9.0813192174603430e-01  -1.4158384337134606e+00 1.0500553773738499e+00 5.3203897604148120e-01  -1.6086244034363575e+00 1.6849106133083862e+00 6.8370487797706714e-02  -1.8295080378734969e+00 2.4162043896564378e+00 -4.7512965912888516e-01  -2.0790822571629977e+00 3.2349147286504198e+00 -1.0790622502509750e+00  -2.0022610387175175e+00 4.1970507295309085e+00 -1.7795852505813465e+00  -1.2142310202340745e+00 -7.1588667704954123e-01 2.0051727275876057e+00  -1.4110245026345387e+00 -3.6039350654374985e-01 1.8877823867992909e+00  -1.6204816880828321e+00 6.1073810974938213e-02 1.6905786768523337e+00  -1.8442761968581474e+00 5.6920856274782117e-01 1.4072453394034694e+00  -2.0879986408386007e+00 1.1793711562822828e+00 1.0353298762415335e+00  -2.3602541774309231e+00 1.9014294315991846e+00 5.7601026707328407e-01  -2.6723810881833798e+00 2.7366887374387359e+00 3.7150191748316796e-02  -3.0332953476336750e+00 3.6716197740983842e+00 -5.5995405188919367e-01  -2.9440899854838647e+00 4.7618199418239548e+00 -1.2571770989606061e+00  -1.6981381757280305e+00 -8.1120588066983834e-01 2.5516385343992734e+00  -1.9498450813084125e+00 -4.1246540131378212e-01 2.4375666250841426e+00  -2.2222526680288404e+00 6.0614911816578396e-02 2.2463303562246475e+00  -2.5209376650536344e+00 6.3316415562415262e-01 1.9720283187721694e+00  -2.8522322981702684e+00 1.3226708150486532e+00 1.6118684158160697e+00  -3.2242492801825051e+00 2.1407240165516415e+00 1.1661200586386653e+00  -3.6489137720097711e+00 3.0901918474930929e+00 6.4019231897247986e-01  -4.1435502344349562e+00 4.1570857201375082e+00 4.9634179243242649e-02  -4.0292250873757389e+00 5.3898945531872462e+00 -6.5890809689776730e-01  -2.1575312190417160e+00 -8.1120588066983834e-01 3.1264421745992328e+00  -2.4753812877705714e+00 -4.1246540131378212e-01 3.0178231853641222e+00  -2.8341336241274986e+00 6.0614911816578396e-02 2.8341336241274986e+00  -3.2377987241190187e+00 6.3316415562415262e-01 2.5688970880817177e+00  -3.6906144169480175e+00 1.3226708150486532e+00 2.2177959465280126e+00  -4.1970507295309085e+00 2.1407240165516415e+00 1.7795852505813465e+00  -4.7618199418239548e+00 3.0901918474930929e+00 1.2571770989606061e+00  -5.3898945531872462e+00 4.1570857201375082e+00 6.5890809689776730e-01  -5.2948586860989293e+00 5.3786958984417925e+00 0.0000000000000000e+00  6.4233468464903276e-01 -5.6729366093591738e-01 -2.8252044238738283e-02  7.1409097727699078e-01 -3.8805186386832852e-01 -2.3912649050848472e-01  7.9587939065819224e-01 -1.7217344085086422e-01 -5.0925411943127585e-01  8.9042042618159534e-01 8.1079698903653921e-02 -8.4374634373755475e-01  9.9955626910977591e-01 3.7382674273056171e-01 -1.2473180285157235e+00  1.1248358236444038e+00 7.0843631694781239e-01 -1.7240116959928140e+00  1.2685683551604727e+00 1.0874986642542743e+00 -2.2770538808959904e+00  1.4358979255994919e+00 1.5151536463233437e+00 -2.9086124733205763e+00  1.3608667476433187e+00 1.9238620453569080e+00 -3.5427231137500028e+00  5.3010604291696795e-01 -6.4282793432415131e-01 1.9954394277551379e-01  5.7679677902928650e-01 -4.4581012861825114e-01 4.5318108554373016e-03  6.3161690759624645e-01 -2.0669698205222967e-01 -2.5788645949426170e-01  6.9804396162782389e-01 7.6090658764460223e-02 -5.9303288185611824e-01  7.7702475387264969e-01 4.0549745279073596e-01 -1.0051649518966865e+00  8.6858218946448729e-01 7.8470186982687007e-01 -1.4977014923666143e+00  9.7401901297417415e-01 1.2171759765469303e+00 -2.0731620260289083e+00  1.0996181634619635e+00 1.7081093301388564e+00 -2.7324514076989450e+00  1.0631665418607210e+00 2.2146708550511027e+00 -3.4196416741245552e+00  3.6055474592302650e-01 -7.2841947936755524e-01 4.8234431930348959e-01  3.7605251662856243e-01 -5.0947902833406045e-01 3.0098596491472052e-01  3.9647366689102448e-01 -2.4356333108633987e-01 4.5560073158446374e-02  4.2583526631771373e-01 7.2861974143429209e-02 -2.9021251874494364e-01  4.6421359708206555e-01 4.4420873442289593e-01 -7.1027175226961980e-01  5.1032553385708457e-01 8.7468566441829332e-01 -1.2168656929337809e+00  5.6484248483017874e-01 1.3683280558171571e+00 -1.8102405662024670e+00  6.3500271320542212e-01 1.9303445451737513e+00 -2.4872371175447698e+00  6.2926994711764395e-01 2.5425924959274484e+00 -3.2114941319647494e+00  1.2822244734152932e-01 -8.2540740622908848e-01 8.2540740622908848e-01  1.0553747808511928e-01 -5.7953576616126801e-01 6.5688805162874242e-01  8.4484432704141965e-02 -2.8222027998617272e-01 4.0804359178003047e-01  6.9235955707899949e-02 7.3139686254481445e-02 7.2001833034699175e-02  5.8744494798933400e-02 4.9316701547479569e-01 -3.5461466581286988e-01  5.0063537210928891e-02 9.8325272797745045e-01 -8.7237824940189335e-01  4.2496029189845380e-02 1.5472475145972375e+00 -1.4782374267781122e+00  4.3247364773211248e-02 2.1884152433047386e+00 -2.1635576128300609e+00  6.3197829488856272e-02 2.9109417614476758e+00 -2.9109417614476758e