<?xml version="1.0"?>
<VTKFile type="UnstructuredGrid"  version="0.1"  >
<UnstructuredGrid>
<Piece  NumberOfPoints="81" NumberOfCells="128">
<Points>
<DataArray  type="Float64"  NumberOfComponents="3"  format="ascii">0 0 0  0.125 0 0  0.25 0 0  0.375 0 0  0.5 0 0  0.625 0 0  0.75 0 0  0.875 0 0  1 0 0  0 0.125 0  0.125 0.125 0  0.25 0.125 0  0.375 0.125 0  0.5 0.125 0  0.625 0.125 0  0.75 0.125 0  0.875 0.125 0  1 0.125 0  0 0.25 0  0.125 0.25 0  0.25 0.25 0  0.375 0.25 0  0.5 0.25 0  0.625 0.25 0  0.75 0.25 0  0.875 0.25 0  1 0.25 0  0 0.375 0  0.125 0.375 0  0.25 0.375 0  0.375 0.375 0  0.5 0.375 0  0.625 0.375 0  0.75 0.375 0  0.875 0.375 0  1 0.375 0  0 0.5 0  0.125 0.5 0  0.25 0.5 0  0.375 0.5 0  0.5 0.5 0  0.625 0.5 0  0.75 0.5 0  0.875 0.5 0  1 0.5 0  0 0.625 0  0.125 0.625 0  0.25 0.625 0  0.375 0.625 0  0.5 0.625 0  0.625 0.625 0  0.75 0.625 0  0.875 0.625 0  1 0.625 0  0 0.75 0  0.125 0.75 0  0.25 0.75 0  0.375 0.75 0  0.5 0.75 0  0.625 0.75 0  0.75 0.75 0  0.875 0.75 0  1 0.75 0  0 0.875 0  0.125 0.875 0  0.25 0.875 0  0.375 0.875 0  0.5 0.875 0  0.625 0.875 0  0.75 0.875 0  0.875 0.875 0  1 0.875 0  0 1 0  0.125 1 0  0.25 1 0  0.375 1 0  0.5 1 0  0.625 1 0  0.75 1 0  0.875 1 0  1 1 0  </DataArray>
</Points>
<Cells>
<DataArray  type="UInt32"  Name="connectivity"  format="ascii">0 1 10  0 9 10  1 2 11  1 10 11  2 3 12  2 11 12  3 4 13  3 12 13  4 5 14  4 13 14  5 6 15  5 14 15  6 7 16  6 15 16  7 8 17  7 16 17  9 10 19  9 18 19  10 11 20  10 19 20  11 12 21  11 20 21  12 13 22  12 21 22  13 14 23  13 22 23  14 15 24  14 23 24  15 16 25  15 24 25  16 17 26  16 25 26  18 19 28  18 27 28  19 20 29  19 28 29  20 21 30  20 29 30  21 22 31  21 30 31  22 23 32  22 31 32  23 24 33  23 32 33  24 25 34  24 33 34  25 26 35  25 34 35  27 28 37  27 36 37  28 29 38  28 37 38  29 30 39  29 38 39  30 31 40  30 39 40  31 32 41  31 40 41  32 33 42  32 41 42  33 34 43  33 42 43  34 35 44  34 43 44  36 37 46  36 45 46  37 38 47  37 46 47  38 39 48  38 47 48  39 40 49  39 48 49  40 41 50  40 49 50  41 42 51  41 50 51  42 43 52  42 51 52  43 44 53  43 52 53  45 46 55  45 54 55  46 47 56  46 55 56  47 48 57  47 56 57  48 49 58  48 57 58  49 50 59  49 58 59  50 51 60  50 59 60  51 52 61  51 60 61  52 53 62  52 61 62  54 55 64  54 63 64  55 56 65  55 64 65  56 57 66  56 65 66  57 58 67  57 66 67  58 59 68  58 67 68  59 60 69  59 68 69  60 61 70  60 69 70  61 62 71  61 70 71  63 64 73  63 72 73  64 65 74  64 73 74  65 66 75  65 74 75  66 67 76  66 75 76  67 68 77  67 76 77  68 69 78  68 77 78  69 70 79  69 78 79  70 71 80  70 79 80  </DataArray>
<DataArray  type="UInt32"  Name="offsets"  format="ascii">3 6 9 12 15 18 21 24 27 30 33 36 39 42 45 48 51 54 57 60 63 66 69 72 75 78 81 84 87 90 93 96 99 102 105 108 111 114 117 120 123 126 129 132 135 138 141 144 147 150 153 156 159 162 165 168 171 174 177 180 183 186 189 192 195 198 201 204 207 210 213 216 219 222 225 228 231 234 237 240 243 246 249 252 255 258 261 264 267 270 273 276 279 282 285 288 291 294 297 300 303 306 309 312 315 318 321 324 327 330 333 336 339 342 345 348 351 354 357 360 363 366 369 372 375 378 381 384 </DataArray>
<DataArray  type="UInt8"  Name="types"  format="ascii">5 5 5 5 5 5 5 5 5 5 5 5 5 5 5 5 5 5 5 5 5 5 5 5 5 5 5 5 5 5 5 5 5 5 5 5 5 5 5 5 5 5 5 5 5 5 5 5 5 5 5 5 5 5 5 5 5 5 5 5 5 5 5 5 5 5 5 5 5 5 5 5 5 5 5 5 5 5 5 5 5 5 5 5 5 5 5 5 5 5 5 5 5 5 5 5 5 5 5 5 5 5 5 5 5 5 5 5 5 5 5 5 5 5 5 5 5 5 5 5 5 5 5 5 5 5 5 5 </DataArray>
</Cells>
<PointData  Vectors="f_1153"> 
<DataArray  type="Float64"  Name="f_1153"  NumberOfComponents="3" format="ascii">6.2283252153324940e-02 -6.2500050257781367e-02 0.0000000000000000e+00  1.8594208438335139e-01 -6.1353917254342617e-02 0.0000000000000000e+00  3.0098739460168339e-01 -5.7616081944115327e-02 0.0000000000000000e+00  4.0183176587830916e-01 -5.1146469326424873e-02 0.0000000000000000e+00  4.8322712633191783e-01 -4.1869888687383658e-02 0.0000000000000000e+00  5.4039660273699530e-01 -2.9831725428162530e-02 0.0000000000000000e+00  5.6918239770132928e-01 -1.5274192209931871e-02 0.0000000000000000e+00  5.6596975198706601e-01 1.3352402198549967e-03 0.0000000000000000e+00  5.5481770404134922e-01 1.8823057569804406e-02 0.0000000000000000e+00  6.2444111429297205e-02 -1.8750015077334414e-01 0.0000000000000000e+00  1.8909364716382931e-01 -1.8338244396795184e-01 0.0000000000000000e+00  3.0713415607224204e-01 -1.7100091244294480e-01 0.0000000000000000e+00  4.1077913484138801e-01 -1.5033482636845980e-01 0.0000000000000000e+00  4.9469578650971191e-01 -1.2165062246883700e-01 0.0000000000000000e+00  5.5391520293158159e-01 -8.5455279857689928e-02 0.0000000000000000e+00  5.8413239220955360e-01 -4.2639517570801123e-02 0.0000000000000000e+00  5.8159106028854346e-01 5.4855923315807759e-03 0.0000000000000000e+00  5.5391658408871602e-01 5.6469172709413241e-02 0.0000000000000000e+00  6.3410691574294409e-02 -3.1250025128890685e-01 0.0000000000000000e+00  1.9299754205269493e-01 -3.0552070258163050e-01 0.0000000000000000e+00  3.1394183783546659e-01 -2.8445569945457977e-01 0.0000000000000000e+00  4.2032573032642084e-01 -2.4956083293202350e-01 0.0000000000000000e+00  5.0672732354518391e-01 -2.0139576506979048e-01 0.0000000000000000e+00  5.6793277407305609e-01 -1.4090087346751221e-01 0.0000000000000000e+00  5.9943604133886408e-01 -6.9664132341449234e-02 0.0000000000000000e+00  5.9735246185448787e-01 1.0002008002076991e-02 0.0000000000000000e+00  5.5301210239272480e-01 9.4115287849022136e-02 0.0000000000000000e+00  6.5195762700074766e-02 -4.3750035180446989e-01 0.0000000000000000e+00  1.9778663030081067e-01 -4.2777786483159053e-01 0.0000000000000000e+00  3.2183809901425825e-01 -3.9811666656706818e-01 0.0000000000000000e+00  4.3119504190889502e-01 -3.4901308714458390e-01 0.0000000000000000e+00  5.2027403366168645e-01 -2.8128329013759706e-01 0.0000000000000000e+00  5.8353657626469879e-01 -1.9628504620656992e-01 0.0000000000000000e+00  6.1617198258650197e-01 -9.6360364460459924e-02 0.0000000000000000e+00  6.1412945535137153e-01 1.4952382435437558e-02 0.0000000000000000e+00  5.5294786793095230e-01 1.3176140298863093e-01 0.0000000000000000e+00  6.7553831960183053e-02 -5.6250045232003243e-01 0.0000000000000000e+00  2.0326990246792792e-01 -5.5023526116138755e-01 0.0000000000000000e+00  3.3063299351071901e-01 -5.1213028637442060e-01 0.0000000000000000e+00  4.4322882693447035e-01 -4.4886408393165661e-01 0.0000000000000000e+00  5.3527899335982543e-01 -3.6147756703655237e-01 0.0000000000000000e+00  6.0086431360486392e-01 -2.5172454932149080e-01 0.0000000000000000e+00  6.3469426753853131e-01 -1.2275196595992791e-01 0.0000000000000000e+00  6.3238278122894198e-01 2.0400989202218875e-02 0.0000000000000000e+00  5.5444631158155810e-01 1.6940751812823976e-01 0.0000000000000000e+00  6.9887175194377926e-02 -6.8750055283559552e-01 0.0000000000000000e+00  2.0881583485348382e-01 -6.7296413994880777e-01 0.0000000000000000e+00  3.3957928063420262e-01 -6.2662726283547965e-01 0.0000000000000000e+00  4.5558803957746419e-01 -5.4931956400125226e-01 0.0000000000000000e+00  5.5091281650122481e-01 -4.4226873527849725e-01 0.0000000000000000e+00  6.1929798486072718e-01 -3.0758391521410666e-01 0.0000000000000000e+00  6.5471771743436658e-01 -1.4916714628169181e-01 0.0000000000000000e+00  6.5211359079163045e-01 2.6175850169587740e-02 0.0000000000000000e+00  5.5775417226080082e-01 2.0705363326784873e-01 0.0000000000000000e+00  7.1264515699034692e-02 -8.1250065335115840e-01 0.0000000000000000e+00  2.1327977542486554e-01 -7.9590398630435644e-01 0.0000000000000000e+00  3.4712252791937759e-01 -7.4151636178075830e-01 0.0000000000000000e+00  4.6623358201731668e-01 -6.5034047610824719e-01 0.0000000000000000e+00  5.6471421672955857e-01 -5.2378620493712358e-01 0.0000000000000000e+00  6.3620135436356295e-01 -3.6423618408345604e-01 0.0000000000000000e+00  6.7400033626766320e-01 -1.7619622667190959e-01 0.0000000000000000e+00  6.7192308316794580e-01 3.1698592946472738e-02 0.0000000000000000e+00  5.6207764760079004e-01 2.4469974840745751e-01 0.0000000000000000e+00  7.0753491326828510e-02 -9.3750075386672094e-01 0.0000000000000000e+00  2.1524832085507883e-01 -9.1861233952832522e-01 0.0000000000000000e+00  3.5126294491761334e-01 -8.5617717430982943e-01 0.0000000000000000e+00  4.7229845090542433e-01 -7.5125042238898332e-01 0.0000000000000000e+00  5.7274810125386966e-01 -6.0555296584800389e-01 0.0000000000000000e+00  6.4656405330595290e-01 -4.2172812750787331e-01 0.0000000000000000e+00  6.8713751216353169e-01 -2.0474716707712268e-01 0.0000000000000000e+00  6.8707902000900456e-01 3.5676994948979510e-02 0.0000000000000000e+00  5.6425626113056515e-01 2.8234586354706631e-01 0.0000000000000000e+00  6.2378019578409848e-02 -9.3750075386672094e-01 0.0000000000000000e+00  1.8421389433727245e-01 -9.1861233952832522e-01 0.0000000000000000e+00  2.9736522288352357e-01 -8.5617717430982943e-01 0.0000000000000000e+00  3.9629380516815005e-01 -7.5125042238898332e-01 0.0000000000000000e+00  4.7583291344607315e-01 -6.0555296584800389e-01 0.0000000000000000e+00  5.3132445273049211e-01 -4.2172812750787331e-01 0.0000000000000000e+00  5.5874496860431866e-01 -2.0474716707712268e-01 0.0000000000000000e+00  5.5481770404134922e-01 3.5676994948979510e-02 0.0000000000000000e+00  5.5481770404134922e-01 1.6793831091663480e-01 0.0000000000000000e+00  </DataArray> 
</PointData> 
</Piece>
</UnstructuredGrid>
</VTKFile>