<?xml version="1.0"?>
<VTKFile type="UnstructuredGrid"  version="0.1"  >
<UnstructuredGrid>
<Piece  NumberOfPoints="1089" NumberOfCells="2048">
<Points>
<DataArray  type="Float64"  NumberOfComponents="3"  format="ascii">0 0 0  0.03125 0 0  0.0625 0 0  0.09375 0 0  0.125 0 0  0.15625 0 0  0.1875 0 0  0.21875 0 0  0.25 0 0  0.28125 0 0  0.3125 0 0  0.34375 0 0  0.375 0 0  0.40625 0 0  0.4375 0 0  0.46875 0 0  0.5 0 0  0.53125 0 0  0.5625 0 0  0.59375 0 0  0.625 0 0  0.65625 0 0  0.6875 0 0  0.71875 0 0  0.75 0 0  0.78125 0 0  0.8125 0 0  0.84375 0 0  0.875 0 0  0.90625 0 0  0.9375 0 0  0.96875 0 0  1 0 0  0 0.03125 0  0.03125 0.03125 0  0.0625 0.03125 0  0.09375 0.03125 0  0.125 0.03125 0  0.15625 0.03125 0  0.1875 0.03125 0  0.21875 0.03125 0  0.25 0.03125 0  0.28125 0.03125 0  0.3125 0.03125 0  0.34375 0.03125 0  0.375 0.03125 0  0.40625 0.03125 0  0.4375 0.03125 0  0.46875 0.03125 0  0.5 0.03125 0  0.53125 0.03125 0  0.5625 0.03125 0  0.59375 0.03125 0  0.625 0.03125 0  0.65625 0.03125 0  0.6875 0.03125 0  0.71875 0.03125 0  0.75 0.03125 0  0.78125 0.03125 0  0.8125 0.03125 0  0.84375 0.03125 0  0.875 0.03125 0  0.90625 0.03125 0  0.9375 0.03125 0  0.96875 0.03125 0  1 0.03125 0  0 0.0625 0  0.03125 0.0625 0  0.0625 0.0625 0  0.09375 0.0625 0  0.125 0.0625 0  0.15625 0.0625 0  0.1875 0.0625 0  0.21875 0.0625 0  0.25 0.0625 0  0.28125 0.0625 0  0.3125 0.0625 0  0.34375 0.0625 0  0.375 0.0625 0  0.40625 0.0625 0  0.4375 0.0625 0  0.46875 0.0625 0  0.5 0.0625 0  0.53125 0.0625 0  0.5625 0.0625 0  0.59375 0.0625 0  0.625 0.0625 0  0.65625 0.0625 0  0.6875 0.0625 0  0.71875 0.0625 0  0.75 0.0625 0  0.78125 0.0625 0  0.8125 0.0625 0  0.84375 0.0625 0  0.875 0.0625 0  0.90625 0.0625 0  0.9375 0.0625 0  0.96875 0.0625 0  1 0.0625 0  0 0.09375 0  0.03125 0.09375 0  0.0625 0.09375 0  0.09375 0.09375 0  0.125 0.09375 0  0.15625 0.09375 0  0.1875 0.09375 0  0.21875 0.09375 0  0.25 0.09375 0  0.28125 0.09375 0  0.3125 0.09375 0  0.34375 0.09375 0  0.375 0.09375 0  0.40625 0.09375 0  0.4375 0.09375 0  0.46875 0.09375 0  0.5 0.09375 0  0.53125 0.09375 0  0.5625 0.09375 0  0.59375 0.09375 0  0.625 0.09375 0  0.65625 0.09375 0  0.6875 0.09375 0  0.71875 0.09375 0  0.75 0.09375 0  0.78125 0.09375 0  0.8125 0.09375 0  0.84375 0.09375 0  0.875 0.09375 0  0.90625 0.09375 0  0.9375 0.09375 0  0.96875 0.09375 0  1 0.09375 0  0 0.125 0  0.03125 0.125 0  0.0625 0.125 0  0.09375 0.125 0  0.125 0.125 0  0.15625 0.125 0  0.1875 0.125 0  0.21875 0.125 0  0.25 0.125 0  0.28125 0.125 0  0.3125 0.125 0  0.34375 0.125 0  0.375 0.125 0  0.40625 0.125 0  0.4375 0.125 0  0.46875 0.125 0  0.5 0.125 0  0.53125 0.125 0  0.5625 0.125 0  0.59375 0.125 0  0.625 0.125 0  0.65625 0.125 0  0.6875 0.125 0  0.71875 0.125 0  0.75 0.125 0  0.78125 0.125 0  0.8125 0.125 0  0.84375 0.125 0  0.875 0.125 0  0.90625 0.125 0  0.9375 0.125 0  0.96875 0.125 0  1 0.125 0  0 0.15625 0  0.03125 0.15625 0  0.0625 0.15625 0  0.09375 0.15625 0  0.125 0.15625 0  0.15625 0.15625 0  0.1875 0.15625 0  0.21875 0.15625 0  0.25 0.15625 0  0.28125 0.15625 0  0.3125 0.15625 0  0.34375 0.15625 0  0.375 0.15625 0  0.40625 0.15625 0  0.4375 0.15625 0  0.46875 0.15625 0  0.5 0.15625 0  0.53125 0.15625 0  0.5625 0.15625 0  0.59375 0.15625 0  0.625 0.15625 0  0.65625 0.15625 0  0.6875 0.15625 0  0.71875 0.15625 0  0.75 0.15625 0  0.78125 0.15625 0  0.8125 0.15625 0  0.84375 0.15625 0  0.875 0.15625 0  0.90625 0.15625 0  0.9375 0.15625 0  0.96875 0.15625 0  1 0.15625 0  0 0.1875 0  0.03125 0.1875 0  0.0625 0.1875 0  0.09375 0.1875 0  0.125 0.1875 0  0.15625 0.1875 0  0.1875 0.1875 0  0.21875 0.1875 0  0.25 0.1875 0  0.28125 0.1875 0  0.3125 0.1875 0  0.34375 0.1875 0  0.375 0.1875 0  0.40625 0.1875 0  0.4375 0.1875 0  0.46875 0.1875 0  0.5 0.1875 0  0.53125 0.1875 0  0.5625 0.1875 0  0.59375 0.1875 0  0.625 0.1875 0  0.65625 0.1875 0  0.6875 0.1875 0  0.71875 0.1875 0  0.75 0.1875 0  0.78125 0.1875 0  0.8125 0.1875 0  0.84375 0.1875 0  0.875 0.1875 0  0.90625 0.1875 0  0.9375 0.1875 0  0.96875 0.1875 0  1 0.1875 0  0 0.21875 0  0.03125 0.21875 0  0.0625 0.21875 0  0.09375 0.21875 0  0.125 0.21875 0  0.15625 0.21875 0  0.1875 0.21875 0  0.21875 0.21875 0  0.25 0.21875 0  0.28125 0.21875 0  0.3125 0.21875 0  0.34375 0.21875 0  0.375 0.21875 0  0.40625 0.21875 0  0.4375 0.21875 0  0.46875 0.21875 0  0.5 0.21875 0  0.53125 0.21875 0  0.5625 0.21875 0  0.59375 0.21875 0  0.625 0.21875 0  0.65625 0.21875 0  0.6875 0.21875 0  0.71875 0.21875 0  0.75 0.21875 0  0.78125 0.21875 0  0.8125 0.21875 0  0.84375 0.21875 0  0.875 0.21875 0  0.90625 0.21875 0  0.9375 0.21875 0  0.96875 0.21875 0  1 0.21875 0  0 0.25 0  0.03125 0.25 0  0.0625 0.25 0  0.09375 0.25 0  0.125 0.25 0  0.15625 0.25 0  0.1875 0.25 0  0.21875 0.25 0  0.25 0.25 0  0.28125 0.25 0  0.3125 0.25 0  0.34375 0.25 0  0.375 0.25 0  0.40625 0.25 0  0.4375 0.25 0  0.46875 0.25 0  0.5 0.25 0  0.53125 0.25 0  0.5625 0.25 0  0.59375 0.25 0  0.625 0.25 0  0.65625 0.25 0  0.6875 0.25 0  0.71875 0.25 0  0.75 0.25 0  0.78125 0.25 0  0.8125 0.25 0  0.84375 0.25 0  0.875 0.25 0  0.90625 0.25 0  0.9375 0.25 0  0.96875 0.25 0  1 0.25 0  0 0.28125 0  0.03125 0.28125 0  0.0625 0.28125 0  0.09375 0.28125 0  0.125 0.28125 0  0.15625 0.28125 0  0.1875 0.28125 0  0.21875 0.28125 0  0.25 0.28125 0  0.28125 0.28125 0  0.3125 0.28125 0  0.34375 0.28125 0  0.375 0.28125 0  0.40625 0.28125 0  0.4375 0.28125 0  0.46875 0.28125 0  0.5 0.28125 0  0.53125 0.28125 0  0.5625 0.28125 0  0.59375 0.28125 0  0.625 0.28125 0  0.65625 0.28125 0  0.6875 0.28125 0  0.71875 0.28125 0  0.75 0.28125 0  0.78125 0.28125 0  0.8125 0.28125 0  0.84375 0.28125 0  0.875 0.28125 0  0.90625 0.28125 0  0.9375 0.28125 0  0.96875 0.28125 0  1 0.28125 0  0 0.3125 0  0.03125 0.3125 0  0.0625 0.3125 0  0.09375 0.3125 0  0.125 0.3125 0  0.15625 0.3125 0  0.1875 0.3125 0  0.21875 0.3125 0  0.25 0.3125 0  0.28125 0.3125 0  0.3125 0.3125 0  0.34375 0.3125 0  0.375 0.3125 0  0.40625 0.3125 0  0.4375 0.3125 0  0.46875 0.3125 0  0.5 0.3125 0  0.53125 0.3125 0  0.5625 0.3125 0  0.59375 0.3125 0  0.625 0.3125 0  0.65625 0.3125 0  0.6875 0.3125 0  0.71875 0.3125 0  0.75 0.3125 0  0.78125 0.3125 0  0.8125 0.3125 0  0.84375 0.3125 0  0.875 0.3125 0  0.90625 0.3125 0  0.9375 0.3125 0  0.96875 0.3125 0  1 0.3125 0  0 0.34375 0  0.03125 0.34375 0  0.0625 0.34375 0  0.09375 0.34375 0  0.125 0.34375 0  0.15625 0.34375 0  0.1875 0.34375 0  0.21875 0.34375 0  0.25 0.34375 0  0.28125 0.34375 0  0.3125 0.34375 0  0.34375 0.34375 0  0.375 0.34375 0  0.40625 0.34375 0  0.4375 0.34375 0  0.46875 0.34375 0  0.5 0.34375 0  0.53125 0.34375 0  0.5625 0.34375 0  0.59375 0.34375 0  0.625 0.34375 0  0.65625 0.34375 0  0.6875 0.34375 0  0.71875 0.34375 0  0.75 0.34375 0  0.78125 0.34375 0  0.8125 0.34375 0  0.84375 0.34375 0  0.875 0.34375 0  0.90625 0.34375 0  0.9375 0.34375 0  0.96875 0.34375 0  1 0.34375 0  0 0.375 0  0.03125 0.375 0  0.0625 0.375 0  0.09375 0.375 0  0.125 0.375 0  0.15625 0.375 0  0.1875 0.375 0  0.21875 0.375 0  0.25 0.375 0  0.28125 0.375 0  0.3125 0.375 0  0.34375 0.375 0  0.375 0.375 0  0.40625 0.375 0  0.4375 0.375 0  0.46875 0.375 0  0.5 0.375 0  0.53125 0.375 0  0.5625 0.375 0  0.59375 0.375 0  0.625 0.375 0  0.65625 0.375 0  0.6875 0.375 0  0.71875 0.375 0  0.75 0.375 0  0.78125 0.375 0  0.8125 0.375 0  0.84375 0.375 0  0.875 0.375 0  0.90625 0.375 0  0.9375 0.375 0  0.96875 0.375 0  1 0.375 0  0 0.40625 0  0.03125 0.40625 0  0.0625 0.40625 0  0.09375 0.40625 0  0.125 0.40625 0  0.15625 0.40625 0  0.1875 0.40625 0  0.21875 0.40625 0  0.25 0.40625 0  0.28125 0.40625 0  0.3125 0.40625 0  0.34375 0.40625 0  0.375 0.40625 0  0.40625 0.40625 0  0.4375 0.40625 0  0.46875 0.40625 0  0.5 0.40625 0  0.53125 0.40625 0  0.5625 0.40625 0  0.59375 0.40625 0  0.625 0.40625 0  0.65625 0.40625 0  0.6875 0.40625 0  0.71875 0.40625 0  0.75 0.40625 0  0.78125 0.40625 0  0.8125 0.40625 0  0.84375 0.40625 0  0.875 0.40625 0  0.90625 0.40625 0  0.9375 0.40625 0  0.96875 0.40625 0  1 0.40625 0  0 0.4375 0  0.03125 0.4375 0  0.0625 0.4375 0  0.09375 0.4375 0  0.125 0.4375 0  0.15625 0.4375 0  0.1875 0.4375 0  0.21875 0.4375 0  0.25 0.4375 0  0.28125 0.4375 0  0.3125 0.4375 0  0.34375 0.4375 0  0.375 0.4375 0  0.40625 0.4375 0  0.4375 0.4375 0  0.46875 0.4375 0  0.5 0.4375 0  0.53125 0.4375 0  0.5625 0.4375 0  0.59375 0.4375 0  0.625 0.4375 0  0.65625 0.4375 0  0.6875 0.4375 0  0.71875 0.4375 0  0.75 0.4375 0  0.78125 0.4375 0  0.8125 0.4375 0  0.84375 0.4375 0  0.875 0.4375 0  0.90625 0.4375 0  0.9375 0.4375 0  0.96875 0.4375 0  1 0.4375 0  0 0.46875 0  0.03125 0.46875 0  0.0625 0.46875 0  0.09375 0.46875 0  0.125 0.46875 0  0.15625 0.46875 0  0.1875 0.46875 0  0.21875 0.46875 0  0.25 0.46875 0  0.28125 0.46875 0  0.3125 0.46875 0  0.34375 0.46875 0  0.375 0.46875 0  0.40625 0.46875 0  0.4375 0.46875 0  0.46875 0.46875 0  0.5 0.46875 0  0.53125 0.46875 0  0.5625 0.46875 0  0.59375 0.46875 0  0.625 0.46875 0  0.65625 0.46875 0  0.6875 0.46875 0  0.71875 0.46875 0  0.75 0.46875 0  0.78125 0.46875 0  0.8125 0.46875 0  0.84375 0.46875 0  0.875 0.46875 0  0.90625 0.46875 0  0.9375 0.46875 0  0.96875 0.46875 0  1 0.46875 0  0 0.5 0  0.03125 0.5 0  0.0625 0.5 0  0.09375 0.5 0  0.125 0.5 0  0.15625 0.5 0  0.1875 0.5 0  0.21875 0.5 0  0.25 0.5 0  0.28125 0.5 0  0.3125 0.5 0  0.34375 0.5 0  0.375 0.5 0  0.40625 0.5 0  0.4375 0.5 0  0.46875 0.5 0  0.5 0.5 0  0.53125 0.5 0  0.5625 0.5 0  0.59375 0.5 0  0.625 0.5 0  0.65625 0.5 0  0.6875 0.5 0  0.71875 0.5 0  0.75 0.5 0  0.78125 0.5 0  0.8125 0.5 0  0.84375 0.5 0  0.875 0.5 0  0.90625 0.5 0  0.9375 0.5 0  0.96875 0.5 0  1 0.5 0  0 0.53125 0  0.03125 0.53125 0  0.0625 0.53125 0  0.09375 0.53125 0  0.125 0.53125 0  0.15625 0.53125 0  0.1875 0.53125 0  0.21875 0.53125 0  0.25 0.53125 0  0.28125 0.53125 0  0.3125 0.53125 0  0.34375 0.53125 0  0.375 0.53125 0  0.40625 0.53125 0  0.4375 0.53125 0  0.46875 0.53125 0  0.5 0.53125 0  0.53125 0.53125 0  0.5625 0.53125 0  0.59375 0.53125 0  0.625 0.53125 0  0.65625 0.53125 0  0.6875 0.53125 0  0.71875 0.53125 0  0.75 0.53125 0  0.78125 0.531
[...]
<PointData  Vectors="f_940"> 
<DataArray  type="Float64"  Name="f_940"  NumberOfComponents="3" format="ascii">1.4956238093656708e-02 0.0000000000000000e+00 0.0000000000000000e+00  1.5273764520529497e-02 -1.3469322707790221e-02 0.0000000000000000e+00  1.5936049093169730e-02 -2.6665715188638917e-02 0.0000000000000000e+00  1.6872293658564505e-02 -3.9252903617560841e-02 0.0000000000000000e+00  1.8025341117649640e-02 -5.0980027854555243e-02 0.0000000000000000e+00  1.9341078006121920e-02 -6.1661573846909512e-02 0.0000000000000000e+00  2.0772534405284537e-02 -7.1174447294721555e-02 0.0000000000000000e+00  2.2283821787166175e-02 -7.9449576981650338e-02 0.0000000000000000e+00  2.3840901782387791e-02 -8.6459991519578061e-02 0.0000000000000000e+00  2.5417102718103601e-02 -9.2220325738799569e-02 0.0000000000000000e+00  2.6999953507356622e-02 -9.6777140153844643e-02 0.0000000000000000e+00  2.8574922544720993e-02 -1.0019317083261636e-01 0.0000000000000000e+00  3.0127398494416480e-02 -1.0255033648592948e-01 0.0000000000000000e+00  3.1647498964928467e-02 -1.0394793207198705e-01 0.0000000000000000e+00  3.3135533624655045e-02 -1.0449327661545527e-01 0.0000000000000000e+00  3.4576203402992056e-02 -1.0428817086650699e-01 0.0000000000000000e+00  3.5949546228469464e-02 -1.0344518822400084e-01 0.0000000000000000e+00  3.7238380474443056e-02 -1.0208536652818778e-01 0.0000000000000000e+00  3.8419606951072161e-02 -1.0032887330182960e-01 0.0000000000000000e+00  3.9466138394751327e-02 -9.8297001685647145e-02 0.0000000000000000e+00  4.0354493257435564e-02 -9.6109545196326973e-02 0.0000000000000000e+00  4.1073505347217709e-02 -9.3873086838773989e-02 0.0000000000000000e+00  4.1624634274300742e-02 -9.1661651577382930e-02 0.0000000000000000e+00  4.2039053212567845e-02 -8.9500219612888454e-02 0.0000000000000000e+00  4.2398923813234096e-02 -8.7329058321014480e-02 0.0000000000000000e+00  4.2840221186548830e-02 -8.4945863793667517e-02 0.0000000000000000e+00  4.3532438445253188e-02 -8.1947052898965048e-02 0.0000000000000000e+00  4.4617238185815741e-02 -7.7704748818703137e-02 0.0000000000000000e+00  4.6332268714655039e-02 -7.1388876164018483e-02 0.0000000000000000e+00  4.8656717542076566e-02 -6.1911985477571707e-02 0.0000000000000000e+00  5.2086616505345407e-02 -4.8015917186021606e-02 0.0000000000000000e+00  5.6100306164432401e-02 -2.8439151361575932e-02 0.0000000000000000e+00  0.0000000000000000e+00 1.1102230246251565e-16 0.0000000000000000e+00  5.7578766394151076e-02 0.0000000000000000e+00 0.0000000000000000e+00  5.8264394171431616e-02 -1.3815007457535833e-02 0.0000000000000000e+00  5.9594085154508494e-02 -2.7334792681703357e-02 0.0000000000000000e+00  6.1457537649473787e-02 -4.0203799692945408e-02 0.0000000000000000e+00  6.3756287366835307e-02 -5.2167295765881860e-02 0.0000000000000000e+00  6.6395329384219492e-02 -6.3040983739843348e-02 0.0000000000000000e+00  6.9291567356372485e-02 -7.2707739158593743e-02 0.0000000000000000e+00  7.2382575404421390e-02 -8.1106524495213606e-02 0.0000000000000000e+00  7.5610668304289863e-02 -8.8214743940359552e-02 0.0000000000000000e+00  7.8929496740412941e-02 -9.4053604358902865e-02 0.0000000000000000e+00  8.2318242527655683e-02 -9.8678657352581300e-02 0.0000000000000000e+00  8.5761098421640036e-02 -1.0215531157861579e-01 0.0000000000000000e+00  8.9238372276897127e-02 -1.0456490308808297e-01 0.0000000000000000e+00  9.2736062940747432e-02 -1.0600854953635841e-01 0.0000000000000000e+00  9.6257050317662518e-02 -1.0659591208359609e-01 0.0000000000000000e+00  9.9788716024677426e-02 -1.0642146715504008e-01 0.0000000000000000e+00  1.0329823259605531e-01 -1.0558862113467682e-01 0.0000000000000000e+00  1.0675092090096738e-01 -1.0421252448723972e-01 0.0000000000000000e+00  1.1009877046004679e-01 -1.0240491985166533e-01 0.0000000000000000e+00  1.1328355143615154e-01 -1.0027997481844431e-01 0.0000000000000000e+00  1.1623497355571966e-01 -9.7951374135946678e-02 0.0000000000000000e+00  1.1889372775404106e-01 -9.5527431782498895e-02 0.0000000000000000e+00  1.2121121240453997e-01 -9.3089239516744693e-02 0.0000000000000000e+00  1.2318222772162984e-01 -9.0683336997585406e-02 0.0000000000000000e+00  1.2487322298359174e-01 -8.8283935697151567e-02 0.0000000000000000e+00  1.2644808924917489e-01 -8.5730317889490204e-02 0.0000000000000000e+00  1.2811400471203430e-01 -8.2641520518470651e-02 0.0000000000000000e+00  1.3004879202298886e-01 -7.8402513217184097e-02 0.0000000000000000e+00  1.3252763692633807e-01 -7.2188918453814810e-02 0.0000000000000000e+00  1.3550379061011220e-01 -6.2877323199195034e-02 0.0000000000000000e+00  1.3960262326564932e-01 -4.9223075256257243e-02 0.0000000000000000e+00  1.4375310937249508e-01 -2.8942241492192489e-02 0.0000000000000000e+00  8.7803500470098106e-02 0.0000000000000000e+00 0.0000000000000000e+00  9.9464183657620400e-02 0.0000000000000000e+00 0.0000000000000000e+00  1.0053561964759733e-01 -1.4505746757428550e-02 0.0000000000000000e+00  1.0251627255096118e-01 -2.8627145072974258e-02 0.0000000000000000e+00  1.0525676249948843e-01 -4.2016472885889389e-02 0.0000000000000000e+00  1.0862399064796271e-01 -5.4419959295987530e-02 0.0000000000000000e+00  1.1248794021297065e-01 -6.5655316907737848e-02 0.0000000000000000e+00  1.1673205871375375e-01 -7.5613717591211049e-02 0.0000000000000000e+00  1.2126905508140462e-01 -8.4247046500573131e-02 0.0000000000000000e+00  1.2602131585678122e-01 -9.1542649342204463e-02 0.0000000000000000e+00  1.3092426035980187e-01 -9.7532547616324350e-02 0.0000000000000000e+00  1.3594581646435466e-01 -1.0228657468751001e-01 0.0000000000000000e+00  1.4107043917495965e-01 -1.0588098235151955e-01 0.0000000000000000e+00  1.4628331146465123e-01 -1.0839992881317939e-01 0.0000000000000000e+00  1.5157196493557612e-01 -1.0994596990543093e-01 0.0000000000000000e+00  1.5694357966328576e-01 -1.1063215477417132e-01 0.0000000000000000e+00  1.6240286009955418e-01 -1.1055130289993498e-01 0.0000000000000000e+00  1.6792868626163260e-01 -1.0979169773556208e-01 0.0000000000000000e+00  1.7348096485081377e-01 -1.0845230764537450e-01 0.0000000000000000e+00  1.7900510233912093e-01 -1.0663238837638522e-01 0.0000000000000000e+00  1.8442728333802516e-01 -1.0443171304899113e-01 0.0000000000000000e+00  1.8964737584016611e-01 -1.0194726739587578e-01 0.0000000000000000e+00  1.9455536870375856e-01 -9.9280362126214494e-02 0.0000000000000000e+00  1.9904964684669485e-01 -9.6520354062590463e-02 0.0000000000000000e+00  2.0306480140926808e-01 -9.3739302259068569e-02 0.0000000000000000e+00  2.0660709935483138e-01 -9.0954488299587993e-02 0.0000000000000000e+00  2.0980573059316973e-01 -8.8059999142916484e-02 0.0000000000000000e+00  2.1282051580524752e-01 -8.4697107918013340e-02 0.0000000000000000e+00  2.1575753688986657e-01 -8.0246893526734225e-02 0.0000000000000000e+00  2.1883269434899566e-01 -7.3850278990065132e-02 0.0000000000000000e+00  2.2184859379702954e-01 -6.4264360017195432e-02 0.0000000000000000e+00  2.2551895557493529e-01 -5.0063214610664097e-02 0.0000000000000000e+00  2.2816768219147532e-01 -2.8604948970585298e-02 0.0000000000000000e+00  1.7370484436231504e-01 0.0000000000000000e+00 0.0000000000000000e+00  1.4026477984089700e-01 0.0000000000000000e+00 0.0000000000000000e+00  1.4171642913566945e-01 -1.5515793463130478e-02 0.0000000000000000e+00  1.4432941864635940e-01 -3.0504092648263814e-02 0.0000000000000000e+00  1.4791413680061657e-01 -4.4634726491295407e-02 0.0000000000000000e+00  1.5230346744513595e-01 -5.7663833990481805e-02 0.0000000000000000e+00  1.5733418466084326e-01 -6.9415005574411826e-02 0.0000000000000000e+00  1.6285736685843633e-01 -7.9789768698342645e-02 0.0000000000000000e+00  1.6875895147929632e-01 -8.8756426436931157e-02 0.0000000000000000e+00  1.7494149658791891e-01 -9.6318309518330869e-02 0.0000000000000000e+00  1.8132451787163639e-01 -1.0252262638892939e-01 0.0000000000000000e+00  1.8786270315960618e-01 -1.0745666067905113e-01 0.0000000000000000e+00  1.9453474078995547e-01 -1.1121414395148355e-01 0.0000000000000000e+00  2.0133333106086526e-01 -1.1389119805658532e-01 0.0000000000000000e+00  2.0825648098444660e-01 -1.1559432594766439e-01 0.0000000000000000e+00  2.1531809856259920e-01 -1.1643954661713973e-01 0.0000000000000000e+00  2.2253837329828663e-01 -1.1652280973680018e-01 0.0000000000000000e+00  2.2992311692810752e-01 -1.1592151324427979e-01 0.0000000000000000e+00  2.3744494971364871e-01 -1.1471009727434256e-01 0.0000000000000000e+00  2.4505021321051224e-01 -1.1296643098701120e-01 0.0000000000000000e+00  2.5265483047426496e-01 -1.1076587700991258e-01 0.0000000000000000e+00  2.6013915917691788e-01 -1.0817999578395543e-01 0.0000000000000000e+00  2.6734358554238563e-01 -1.0528615589702778e-01 0.0000000000000000e+00  2.7410069831453165e-01 -1.0217211177926011e-01 0.0000000000000000e+00  2.8026624103837439e-01 -9.8924681970424921e-02 0.0000000000000000e+00  2.8574840504874532e-01 -9.5593154304838251e-02 0.0000000000000000e+00  2.9059267238255165e-01 -9.2115723600555907e-02 0.0000000000000000e+00  2.9485969150589597e-01 -8.8134594512874781e-02 0.0000000000000000e+00  2.9853053293746334e-01 -8.2998189821834045e-02 0.0000000000000000e+00  3.0173459013146747e-01 -7.5788658412229870e-02 0.0000000000000000e+00  3.0414111002100547e-01 -6.5173609720868442e-02 0.0000000000000000e+00  3.0668854435421378e-01 -4.9817430010458130e-02 0.0000000000000000e+00  3.0769550226242026e-01 -2.7511383335488193e-02 0.0000000000000000e+00  2.5602449489876955e-01 -1.1102230246251565e-16 0.0000000000000000e+00  1.7967158351268059e-01 0.0000000000000000e+00 0.0000000000000000e+00  1.8149937494500362e-01 -1.6818726143740914e-02 0.0000000000000000e+00  1.8473134172235550e-01 -3.2928618941941767e-02 0.0000000000000000e+00  1.8914041555772215e-01 -4.8015144057317993e-02 0.0000000000000000e+00  1.9452547417515770e-01 -6.1848426120236999e-02 0.0000000000000000e+00  2.0069022924317786e-01 -7.4262217560995047e-02 0.0000000000000000e+00  2.0745359739209657e-01 -8.5171248367144070e-02 0.0000000000000000e+00  2.1467424553105774e-01 -9.4562888311118476e-02 0.0000000000000000e+00  2.2222953542083368e-01 -1.0246058405518754e-01 0.0000000000000000e+00  2.3002196038412759e-01 -1.0893285010277798e-01 0.0000000000000000e+00  2.3799242679134669e-01 -1.1408743302139057e-01 0.0000000000000000e+00  2.4610890431143917e-01 -1.1803942243889087e-01 0.0000000000000000e+00  2.5436372224506554e-01 -1.2090584550574046e-01 0.0000000000000000e+00  2.6276784717479384e-01 -1.2280614993303407e-01 0.0000000000000000e+00  2.7134741929455186e-01 -1.2386028850250519e-01 0.0000000000000000e+00  2.8013634942308485e-01 -1.2416767280796071e-01 0.0000000000000000e+00  2.8916318924753259e-01 -1.2380120020608587e-01 0.0000000000000000e+00  2.9842844326810247e-01 -1.2281188256142583e-01 0.0000000000000000e+00  3.0788733604130969e-01 -1.2124251575670653e-01 0.0000000000000000e+00  3.1744933996796731e-01 -1.1913186805288889e-01 0.0000000000000000e+00  3.2697526953984879e-01 -1.1651420070199425e-01 0.0000000000000000e+00  3.3626214371005581e-01 -1.1342588403443854e-01 0.0000000000000000e+00  3.4506700250168693e-01 -1.0993019249064645e-01 0.0000000000000000e+00  3.5315318862231426e-01 -1.0610997850221549e-01 0.0000000000000000e+00  3.6031450622234584e-01 -1.0202522417543983e-01 0.0000000000000000e+00  3.6649054348654142e-01 -9.7639227069265103e-02 0.0000000000000000e+00  3.7164210349374355e-01 -9.2585756091276117e-02 0.0000000000000000e+00  3.7565174970702775e-01 -8.6185335155376991e-02 0.0000000000000000e+00  3.7861346103782395e-01 -7.7512676263601976e-02 0.0000000000000000e+00  3.8014192236302258e-01 -6.5319719496098050e-02 0.0000000000000000e+00  3.8158719464171698e-01 -4.8692795350181117e-02 0.0000000000000000e+00  3.8123192936323569e-01 -2.5967518479426910e-02 0.0000000000000000e+00  3.3329389073770455e-01 0.0000000000000000e+00 0.0000000000000000e+00  2.1738825612940083e-01 0.0000000000000000e+00 0.0000000000000000e+00  2.1959664759128517e-01 -1.8398354506112380e-02 0.0000000000000000e+00  2.2344543439043368e-01 -3.5874976131285763e-02 0.0000000000000000e+00  2.2867268242965388e-01 -5.2127632747619890e-02 0.0000000000000000e+00  2.3504435786561784e-01 -6.6940825177993712e-02 0.0000000000000000e+00  2.4232979032842500e-01 -8.0160714591160476e-02 0.0000000000000000e+00  2.5031560843152750e-01 -9.1718232397946187e-02 0.0000000000000000e+00  2.5883185265815423e-01 -1.0162189207658323e-01 0.0000000000000000e+00  2.6772736457045354e-01 -1.0991715375778188e-01 0.0000000000000000e+00  2.7688026601898796e-01 -1.1669848201824107e-01 0.0000000000000000e+00  2.8621534988853303e-01 -1.2209951731015600e-01 0.0000000000000000e+00  2.9568574988720109e-01 -1.2626009220119894e-01 0.0000000000000000e+00  3.0527626930591989e-01 -1.2932374187266205e-01 0.0000000000000000e+00  3.1500087600543258e-01 -1.3143186689802611e-01 0.0000000000000000e+00  3.2489825750571111e-01 -1.3271570519700704e-01 0.0000000000000000e+00  3.3501665100814970e-01 -1.3327899009028776e-01 0.0000000000000000e+00  3.4540354363701220e-01 -1.3319161281473935e-01 0.0000000000000000e+00  3.5608302480031795e-01 -1.3248470920985977e-01 0.0000000000000000e+00  3.6702929269354367e-01 -1.3115974439628220e-01 0.0000000000000000e+00  3.7815188329076976e-01 -1.2920490796527395e-01 0.0000000000000000e+00  3.8929485316379497e-01 -1.2660062308412101e-01 0.0000000000000000e+00  4.0021409433230792e-01 -1.2332486231425743e-01 0.0000000000000000e+00  4.1059773567965979e-01 -1.1939230909131787e-01 0.0000000000000000e+00  4.2011550171190309e-01 -1.1485819946027437e-01 0.0000000000000000e+00  4.2845410566532971e-01 -1.0977637966949153e-01 0.0000000000000000e+00  4.3546038358153705e-01 -1.0412735315566138e-01 0.0000000000000000e+00  4.4103656236422240e-01 -9.7558684551239602e-02 0.0000000000000000e+00  4.4504204570933881e-01 -8.9415824802789284e-02 0.0000000000000000e+00  4.4761356381029810e-01 -7.8859449933688597e-02 0.0000000000000000e+00  4.4834649299761886e-01 -6.4876020109865040e-02 0.0000000000000000e+00  4.4899222316057008e-01 -4.7091633689020806e-02 0.0000000000000000e+00  4.4752885366958806e-01 -2.4213066203572442e-02 0.0000000000000000e+00  4.0411860541870737e-01 0.0000000000000000e+00 0.0000000000000000e+00  2.5311602208514583e-01 0.0000000000000000e+00 0.0000000000000000e+00  2.5571873482129048e-01 -2.0248290984695716e-02 0.0000000000000000e+00  2.6019528162029038e-01 -3.9331303530143247e-02 0.0000000000000000e+00  2.6624908683827697e-01 -5.6957255704284782e-02 0.0000000000000000e+00  2.7361376739779159e-01 -7.2924412762845447e-02 0.0000000000000000e+00  2.8202264427651830e-01 -8.7091557296617994e-02 0.0000000000000000e+00  2.9122869276440683e-01 -9.9408299730320726e-02 0.0000000000000000e+00  3.0103237577814279e-01 -1.0990584438518347e-01 0.0000000000000000e+00  3.1124959170146127e-01 -1.1865223474139586e-01 0.0000000000000000e+00  3.2172818763523958e-01 -1.2577021834112867e-01 0.0000000000000000e+00  3.3237034167820467e-01 -1.3142486981298762e-01 0.0000000000000000e+00  3.4310921013343820e-01 -1.3578471195919284e-01 0.0000000000000000e+00  3.5391161905723090e-01 -1.3902301693130692e-01 0.0000000000000000e+00  3.6478506507261088e-01 -1.4131012246746477e-01 0.0000000000000000e+00  3.7577234288630434e-01 -1.4279794953722413e-01 0.0000000000000000e+00  3.8693174301782718e-01 -1.4359896944356809e-01 0.0000000000000000e+00  3.9832369877823148e-01 -1.4378071791169766e-01 0.0000000000000000e+00  4.0999353978965491e-01 -1.4335632063484660e-01 0.0000000000000000e+00  4.2193490407462764e-01 -1.4228570813933583e-01 0.0000000000000000e+00  4.3406604099516677e-01 -1.4049646489249012e-01 0.0000000000000000e+00  4.4622165190432095e-01 -1.3789847948203815e-01 0.0000000000000000e+00  4.5812893016774070e-01 -1.3439450843562240e-01 0.0000000000000000e+00  4.6942279861725644e-01 -1.2993226989654783e-01 0.0000000000000000e+00  4.7970023807604817e-01 -1.2452070753829164e-01 0.0000000000000000e+00  4.8856960972666941e-01 -1.1820268952226010e-01 0.0000000000000000e+00  4.9582438452527428e-01 -1.1098971788399531e-01 0.0000000000000000e+00  5.0136802739909703e-01 -1.0259235691338725e-01 0.0000000000000000e+00  5.0512469136997529e-01 -9.2456509423665262e-02 0.0000000000000000e+00  5.0733811401106454e-01 -7.9896962096411284e-02 0.0000000000000000e+00  5.0754241737913086e-01 -6.4167007937648290e-02 0.0000000000000000e+00  5.0776447980986406e-01 -4.5381819008446622e-02 0.0000000000000000e+00  5.0543814544827803e-01 -2.2433322360644214e-02 0.0000000000000000e+00  4.6715835281074458e-01 0.0000000000000000e+00 0.0000000000000000e+00  2.8654256876910739e-01 0.0000000000000000e+00 0.0000000000000000e+00  2.8956174077851954e-01 -2.2370200852102951e-02 0.0000000000000000e+00  2.9468854247836940e-01 -4.3298452833852918e-02 0.0000000000000000e+00  3.0159009827684585e-01 -6.2503223634307048e-02 0.0000000000000000e+00  3.0996631056461710e-01 -7.9796293038554289e-02 0.0000000000000000e+00  3.1951330713718556e-01 -9.5049099283155192e-02 0.0000000000000000e+00  3.2994855714034288e-01 -1.0823134572896698e-01 0.0000000000000000e+00  3.4104108676886380e-01 -1.1939789525338274e-01 0.0000000000000000e+00  3.5257040142371820e-01 -1.2863883277183841e-01 0.0000000000000000e+00  3.6434741999460241e-01 -1.3610624106423086e-01 0.0000000000000000e+00  3.7624501127096555e-01 -1.4200007457553121e-01 0.0000000000000000e+00  3.8816769930706352e-01 -1.4652045986354234e-01 0.0000000000000000e+00  4.0005361867125189e-01 -1.4987245688648732e-01 0.0000000000000000e+00  4.1189061723812159e-01 -1.5226157052648781e-01 0.0000000000000000e+00  4.2371507304954992e-01 -1.5386853466547479e-01 0.0000000000000000e+00  4.3558509252640620e-01 -1.5482028215072352e-01 0.0000000000000000e+00  4.4756525612712617e-01 -1.5518512610902691e-01 0.0000000000000000e+00  4.5971755129473668e-01 -1.5496281395314604e-01 0.0000000000000000e+00  4.7205683857413661e-01 -1.5407289630595655e-01 0.0000000000000000e+00  4.8451641033757931e-01 -1.5237838533735626e-01 0.0000000000000000e+00  4.9693552896328141e-01 -1.4970883427898463e-01 0.0000000000000000e+00  5.0903622824128081e-01 -1.4588188528198742e-01 0.0000000000000000e+00  5.2042743885237619e-01 -1.4076662168670523e-01 0.0000000000000000e+00  5.3067295448512730e-01 -1.3432193494252853e-01 0.0000000000000000e+00  5.3935232167563307e-01 -1.2658855479665659e-01 0.0000000000000000e+00  5.4625877591903360e-01 -1.1763759799283885e-01 0.0000000000000000e+00  5.5134871175929645e-01 -1.0729921316765764e-01 0.0000000000000000e+00  5.5468328052420857e-01 -9.5187942073684501e-02 0.0000000000000000e+00  5.5666434143287213e-01 -8.0784726465589762e-02 0.0000000000000000e+00  5.5669740383664057e-01 -6.3528692805088938e-02 0.0000000000000000e+00  5.5692437215242241e-01 -4.3885709728100020e-02 0.0000000000000000e+00  5.5397904742838666e-01 -2.0804997226480659e-02 0.0000000000000000e+00  5.2124404762170551e-01 0.0000000000000000e+00 0.0000000000000000e+00  3.1733404076438082e-01 0.0000000000000000e+00 0.0000000000000000e+00  3.2079833888446779e-01 -2.4771087105732947e-02 0.0000000000000000e+00  3.2660556746459257e-01 -4.7785730591789921e-02 0.0000000000000000e+00  3.3438462930191060e-01 -6.8774397324557812e-02 0.0000000000000000e+00  3.4379822016602146e-01 -8.7562722730094578e-02 0.0000000000000000e+00  3.5450479819482894e-01 -1.0403599808067887e-01 0.0000000000000000e+00  3.6618393799771765e-01 -1.1818427361871620e-01 0.0000000000000000e+00  3.7857156466688247e-01 -1.3008653364475808e-01 0.0000000000000000e+00  3.9140731502996606e-01 -1.3985380608909215e-01 0.0000000000000000e+00  4.0445945906994030e-01 -1.4766671311822166e-01 0.0000000000000000e+00  4.1756355385809341e-01 -1.5376110188291547e-01 0.0000000000000000e+00  4.3058539432830834e-01 -1.5836955195054125e-01 0.0000000000000000e+00  4.4342315552166434e-01 -1.6173073113180947e-01 0.0000000000000000e+00  4.5603037763569265e-01 -1.6408902633412659e-01 0.0000000000000000e+00  4.6842266927820275e-01 -1.6566108511593647e-01 0.0000000000000000e+00  4.8064327064010037e-01 -1.6659426023094714e-01 0.0000000000000000e+00  4.9275103301885204e-01 -1.