<?xml version="1.0"?>
<VTKFile type="UnstructuredGrid"  version="0.1"  >
<UnstructuredGrid>
<Piece  NumberOfPoints="729" NumberOfCells="3072">
<Points>
<DataArray  type="Float64"  NumberOfComponents="3"  format="ascii">0 0 0  0.125 0 0  0.25 0 0  0.375 0 0  0.5 0 0  0.625 0 0  0.75 0 0  0.875 0 0  1 0 0  0 0.125 0  0.125 0.125 0  0.25 0.125 0  0.375 0.125 0  0.5 0.125 0  0.625 0.125 0  0.75 0.125 0  0.875 0.125 0  1 0.125 0  0 0.25 0  0.125 0.25 0  0.25 0.25 0  0.375 0.25 0  0.5 0.25 0  0.625 0.25 0  0.75 0.25 0  0.875 0.25 0  1 0.25 0  0 0.375 0  0.125 0.375 0  0.25 0.375 0  0.375 0.375 0  0.5 0.375 0  0.625 0.375 0  0.75 0.375 0  0.875 0.375 0  1 0.375 0  0 0.5 0  0.125 0.5 0  0.25 0.5 0  0.375 0.5 0  0.5 0.5 0  0.625 0.5 0  0.75 0.5 0  0.875 0.5 0  1 0.5 0  0 0.625 0  0.125 0.625 0  0.25 0.625 0  0.375 0.625 0  0.5 0.625 0  0.625 0.625 0  0.75 0.625 0  0.875 0.625 0  1 0.625 0  0 0.75 0  0.125 0.75 0  0.25 0.75 0  0.375 0.75 0  0.5 0.75 0  0.625 0.75 0  0.75 0.75 0  0.875 0.75 0  1 0.75 0  0 0.875 0  0.125 0.875 0  0.25 0.875 0  0.375 0.875 0  0.5 0.875 0  0.625 0.875 0  0.75 0.875 0  0.875 0.875 0  1 0.875 0  0 1 0  0.125 1 0  0.25 1 0  0.375 1 0  0.5 1 0  0.625 1 0  0.75 1 0  0.875 1 0  1 1 0  0 0 0.125  0.125 0 0.125  0.25 0 0.125  0.375 0 0.125  0.5 0 0.125  0.625 0 0.125  0.75 0 0.125  0.875 0 0.125  1 0 0.125  0 0.125 0.125  0.125 0.125 0.125  0.25 0.125 0.125  0.375 0.125 0.125  0.5 0.125 0.125  0.625 0.125 0.125  0.75 0.125 0.125  0.875 0.125 0.125  1 0.125 0.125  0 0.25 0.125  0.125 0.25 0.125  0.25 0.25 0.125  0.375 0.25 0.125  0.5 0.25 0.125  0.625 0.25 0.125  0.75 0.25 0.125  0.875 0.25 0.125  1 0.25 0.125  0 0.375 0.125  0.125 0.375 0.125  0.25 0.375 0.125  0.375 0.375 0.125  0.5 0.375 0.125  0.625 0.375 0.125  0.75 0.375 0.125  0.875 0.375 0.125  1 0.375 0.125  0 0.5 0.125  0.125 0.5 0.125  0.25 0.5 0.125  0.375 0.5 0.125  0.5 0.5 0.125  0.625 0.5 0.125  0.75 0.5 0.125  0.875 0.5 0.125  1 0.5 0.125  0 0.625 0.125  0.125 0.625 0.125  0.25 0.625 0.125  0.375 0.625 0.125  0.5 0.625 0.125  0.625 0.625 0.125  0.75 0.625 0.125  0.875 0.625 0.125  1 0.625 0.125  0 0.75 0.125  0.125 0.75 0.125  0.25 0.75 0.125  0.375 0.75 0.125  0.5 0.75 0.125  0.625 0.75 0.125  0.75 0.75 0.125  0.875 0.75 0.125  1 0.75 0.125  0 0.875 0.125  0.125 0.875 0.125  0.25 0.875 0.125  0.375 0.875 0.125  0.5 0.875 0.125  0.625 0.875 0.125  0.75 0.875 0.125  0.875 0.875 0.125  1 0.875 0.125  0 1 0.125  0.125 1 0.125  0.25 1 0.125  0.375 1 0.125  0.5 1 0.125  0.625 1 0.125  0.75 1 0.125  0.875 1 0.125  1 1 0.125  0 0 0.25  0.125 0 0.25  0.25 0 0.25  0.375 0 0.25  0.5 0 0.25  0.625 0 0.25  0.75 0 0.25  0.875 0 0.25  1 0 0.25  0 0.125 0.25  0.125 0.125 0.25  0.25 0.125 0.25  0.375 0.125 0.25  0.5 0.125 0.25  0.625 0.125 0.25  0.75 0.125 0.25  0.875 0.125 0.25  1 0.125 0.25  0 0.25 0.25  0.125 0.25 0.25  0.25 0.25 0.25  0.375 0.25 0.25  0.5 0.25 0.25  0.625 0.25 0.25  0.75 0.25 0.25  0.875 0.25 0.25  1 0.25 0.25  0 0.375 0.25  0.125 0.375 0.25  0.25 0.375 0.25  0.375 0.375 0.25  0.5 0.375 0.25  0.625 0.375 0.25  0.75 0.375 0.25  0.875 0.375 0.25  1 0.375 0.25  0 0.5 0.25  0.125 0.5 0.25  0.25 0.5 0.25  0.375 0.5 0.25  0.5 0.5 0.25  0.625 0.5 0.25  0.75 0.5 0.25  0.875 0.5 0.25  1 0.5 0.25  0 0.625 0.25  0.125 0.625 0.25  0.25 0.625 0.25  0.375 0.625 0.25  0.5 0.625 0.25  0.625 0.625 0.25  0.75 0.625 0.25  0.875 0.625 0.25  1 0.625 0.25  0 0.75 0.25  0.125 0.75 0.25  0.25 0.75 0.25  0.375 0.75 0.25  0.5 0.75 0.25  0.625 0.75 0.25  0.75 0.75 0.25  0.875 0.75 0.25  1 0.75 0.25  0 0.875 0.25  0.125 0.875 0.25  0.25 0.875 0.25  0.375 0.875 0.25  0.5 0.875 0.25  0.625 0.875 0.25  0.75 0.875 0.25  0.875 0.875 0.25  1 0.875 0.25  0 1 0.25  0.125 1 0.25  0.25 1 0.25  0.375 1 0.25  0.5 1 0.25  0.625 1 0.25  0.75 1 0.25  0.875 1 0.25  1 1 0.25  0 0 0.375  0.125 0 0.375  0.25 0 0.375  0.375 0 0.375  0.5 0 0.375  0.625 0 0.375  0.75 0 0.375  0.875 0 0.375  1 0 0.375  0 0.125 0.375  0.125 0.125 0.375  0.25 0.125 0.375  0.375 0.125 0.375  0.5 0.125 0.375  0.625 0.125 0.375  0.75 0.125 0.375  0.875 0.125 0.375  1 0.125 0.375  0 0.25 0.375  0.125 0.25 0.375  0.25 0.25 0.375  0.375 0.25 0.375  0.5 0.25 0.375  0.625 0.25 0.375  0.75 0.25 0.375  0.875 0.25 0.375  1 0.25 0.375  0 0.375 0.375  0.125 0.375 0.375  0.25 0.375 0.375  0.375 0.375 0.375  0.5 0.375 0.375  0.625 0.375 0.375  0.75 0.375 0.375  0.875 0.375 0.375  1 0.375 0.375  0 0.5 0.375  0.125 0.5 0.375  0.25 0.5 0.375  0.375 0.5 0.375  0.5 0.5 0.375  0.625 0.5 0.375  0.75 0.5 0.375  0.875 0.5 0.375  1 0.5 0.375  0 0.625 0.375  0.125 0.625 0.375  0.25 0.625 0.375  0.375 0.625 0.375  0.5 0.625 0.375  0.625 0.625 0.375  0.75 0.625 0.375  0.875 0.625 0.375  1 0.625 0.375  0 0.75 0.375  0.125 0.75 0.375  0.25 0.75 0.375  0.375 0.75 0.375  0.5 0.75 0.375  0.625 0.75 0.375  0.75 0.75 0.375  0.875 0.75 0.375  1 0.75 0.375  0 0.875 0.375  0.125 0.875 0.375  0.25 0.875 0.375  0.375 0.875 0.375  0.5 0.875 0.375  0.625 0.875 0.375  0.75 0.875 0.375  0.875 0.875 0.375  1 0.875 0.375  0 1 0.375  0.125 1 0.375  0.25 1 0.375  0.375 1 0.375  0.5 1 0.375  0.625 1 0.375  0.75 1 0.375  0.875 1 0.375  1 1 0.375  0 0 0.5  0.125 0 0.5  0.25 0 0.5  0.375 0 0.5  0.5 0 0.5  0.625 0 0.5  0.75 0 0.5  0.875 0 0.5  1 0 0.5  0 0.125 0.5  0.125 0.125 0.5  0.25 0.125 0.5  0.375 0.125 0.5  0.5 0.125 0.5  0.625 0.125 0.5  0.75 0.125 0.5  0.875 0.125 0.5  1 0.125 0.5  0 0.25 0.5  0.125 0.25 0.5  0.25 0.25 0.5  0.375 0.25 0.5  0.5 0.25 0.5  0.625 0.25 0.5  0.75 0.25 0.5  0.875 0.25 0.5  1 0.25 0.5  0 0.375 0.5  0.125 0.375 0.5  0.25 0.375 0.5  0.375 0.375 0.5  0.5 0.375 0.5  0.625 0.375 0.5  0.75 0.375 0.5  0.875 0.375 0.5  1 0.375 0.5  0 0.5 0.5  0.125 0.5 0.5  0.25 0.5 0.5  0.375 0.5 0.5  0.5 0.5 0.5  0.625 0.5 0.5  0.75 0.5 0.5  0.875 0.5 0.5  1 0.5 0.5  0 0.625 0.5  0.125 0.625 0.5  0.25 0.625 0.5  0.375 0.625 0.5  0.5 0.625 0.5  0.625 0.625 0.5  0.75 0.625 0.5  0.875 0.625 0.5  1 0.625 0.5  0 0.75 0.5  0.125 0.75 0.5  0.25 0.75 0.5  0.375 0.75 0.5  0.5 0.75 0.5  0.625 0.75 0.5  0.75 0.75 0.5  0.875 0.75 0.5  1 0.75 0.5  0 0.875 0.5  0.125 0.875 0.5  0.25 0.875 0.5  0.375 0.875 0.5  0.5 0.875 0.5  0.625 0.875 0.5  0.75 0.875 0.5  0.875 0.875 0.5  1 0.875 0.5  0 1 0.5  0.125 1 0.5  0.25 1 0.5  0.375 1 0.5  0.5 1 0.5  0.625 1 0.5  0.75 1 0.5  0.875 1 0.5  1 1 0.5  0 0 0.625  0.125 0 0.625  0.25 0 0.625  0.375 0 0.625  0.5 0 0.625  0.625 0 0.625  0.75 0 0.625  0.875 0 0.625  1 0 0.625  0 0.125 0.625  0.125 0.125 0.625  0.25 0.125 0.625  0.375 0.125 0.625  0.5 0.125 0.625  0.625 0.125 0.625  0.75 0.125 0.625  0.875 0.125 0.625  1 0.125 0.625  0 0.25 0.625  0.125 0.25 0.625  0.25 0.25 0.625  0.375 0.25 0.625  0.5 0.25 0.625  0.625 0.25 0.625  0.75 0.25 0.625  0.875 0.25 0.625  1 0.25 0.625  0 0.375 0.625  0.125 0.375 0.625  0.25 0.375 0.625  0.375 0.375 0.625  0.5 0.375 0.625  0.625 0.375 0.625  0.75 0.375 0.625  0.875 0.375 0.625  1 0.375 0.625  0 0.5 0.625  0.125 0.5 0.625  0.25 0.5 0.625  0.375 0.5 0.625  0.5 0.5 0.625  0.625 0.5 0.625  0.75 0.5 0.625  0.875 0.5 0.625  1 0.5 0.625  0 0.625 0.625  0.125 0.625 0.625  0.25 0.625 0.625  0.375 0.625 0.625  0.5 0.625 0.625  0.625 0.625 0.625  0.75 0.625 0.625  0.875 0.625 0.625  1 0.625 0.625  0 0.75 0.625  0.125 0.75 0.625  0.25 0.75 0.625  0.375 0.75 0.625  0.5 0.75 0.625  0.625 0.75 0.625  0.75 0.75 0.625  0.875 0.75 0.625  1 0.75 0.625  0 0.875 0.625  0.125 0.875 0.625  0.25 0.875 0.625  0.375 0.875 0.625  0.5 0.875 0.625  0.625 0.875 0.625  0.75 0.875 0.625  0.875 0.875 0.625  1 0.875 0.625  0 1 0.625  0.125 1 0.625  0.25 1 0.625  0.375 1 0.625  0.5 1 0.625  0.625 1 0.625  0.75 1 0.625  0.875 1 0.625  1 1 0.625  0 0 0.75  0.125 0 0.75  0.25 0 0.75  0.375 0 0.75  0.5 0 0.75  0.625 0 0.75  0.75 0 0.75  0.875 0 0.75  1 0 0.75  0 0.125 0.75  0.125 0.125 0.75  0.25 0.125 0.75  0.375 0.125 0.75  0.5 0.125 0.75  0.625 0.125 0.75  0.75 0.125 0.75  0.875 0.125 0.75  1 0.125 0.75  0 0.25 0.75  0.125 0.25 0.75  0.25 0.25 0.75  0.375 0.25 0.75  0.5 0.25 0.75  0.625 0.25 0.75  0.75 0.25 0.75  0.875 0.25 0.75  1 0.25 0.75  0 0.375 0.75  0.125 0.375 0.75  0.25 0.375 0.75  0.375 0.375 0.75  0.5 0.375 0.75  0.625 0.375 0.75  0.75 0.375 0.75  0.875 0.375 0.75  1 0.375 0.75  0 0.5 0.75  0.125 0.5 0.75  0.25 0.5 0.75  0.375 0.5 0.75  0.5 0.5 0.75  0.625 0.5 0.75  0.75 0.5 0.75  0.875 0.5 0.75  1 0.5 0.75  0 0.625 0.75  0.125 0.625 0.75  0.25 0.625 0.75  0.375 0.625 0.75  0.5 0.625 0.75  0.625 0.625 0.75  0.75 0.625 0.75  0.875 0.625 0.75  1 0.625 0.75  0 0.75 0.75  0.125 0.75 0.75  0.25 0.75 0.75  0.375 0.75 0.75  0.5 0.75 0.75  0.625 0.75 0.75  0.75 0.75 0.75  0.875 0.75 0.75  1 0.75 0.75  0 0.875 0.75  0.125 0.875 0.75  0.25 0.875 0.75  0.375 0.875 0.75  0.5 0.875 0.75  0.625 0.875 0.75  0.75 0.875 0.75  0.875 0.875 0.75  1 0.875 0.75  0 1 0.75  0.125 1 0.75  0.25 1 0.75  0.375 1 0.75  0.5 1 0.75  0.625 1 0.75  0.75 1 0.75  0.875 1 0.75  1 1 0.75  0 0 0.875  0.125 0 0.875  0.25 0 0.875  0.375 0 0.875  0.5 0 0.875  0.625 0 0.875  0.75 0 0.875  0.875 0 0.875  1 0 0.875  0 0.125 0.875  0.125 0.125 0.875  0.25 0.125 0.875  0.375 0.125 0.875  0.5 0.125 0.875  0.625 0.125 0.875  0.75 0.125 0.875  0.875 0.125 0.875  1 0.125 0.875  0 0.25 0.875  0.125 0.25 0.875  0.25 0.25 0.875  0.375 0.25 0.875  0.5 0.25 0.875  0.625 0.25 0.875  0.75 0.25 0.875  0.875 0.25 0.875  1 0.25 0.875  0 0.375 0.875  0.125 0.375 0.875  0.25 0.375 0.875  0.375 0.375 0.875  0.5 0.375 0.875  0.625 0.375 0.875  0.75 0.375 0.875  0.875 0.375 0.875  1 0.375 0.875  0 0.5 0.875  0.125 0.5 0.875  0.25 0.5 0.875  0.375 0.5 0.875  0.5 0.5 0.875  0.625 0.5 0.875  0.75 0.5 0.875  0.875 0.5 0.875  1 0.5 0.875  0 0.625 0.875  0.125 0.625 0.875  0.25 0.625 0.875  0.375 0.625 0.875  0.5 0.625 0.875  0.625 0.625 0.875  0.75 0.625 0.875  0.875 0.625 0.875  1 0.625 0.875  0 0.75 0.875  0.125 0.75 0.875  0.25 0.75 0.875  0.375 0.75 0.875  0.5 0.75 0.875  0.625 0.75 0.875  0.75 0.75 0.875  0.875 0.75 0.875  1 0.75 0.875  0 0.875 0.875  0.125 0.875 0.875  0.25 0.875 0.875  0.375 0.875 0.875  0.5 0.875 0.875  0.625 0.875 0.875  0.75 0.875 0.875  0.
[...]
<PointData  Vectors="f_404"> 
<DataArray  type="Float64"  Name="f_404"  NumberOfComponents="3" format="ascii">1.6146277450558730e-02 0.0000000000000000e+00 0.0000000000000000e+00  1.4188923290950554e-02 -8.7393630998633398e-08 1.5879247248313487e-02  1.1772366958621477e-02 -1.9651458610381312e-07 2.8554221456593202e-02  9.2092547910783695e-03 -3.2966990493044079e-07 3.6814868191093877e-02  6.6055309463381381e-03 -4.8897080628940159e-07 3.9898881760547789e-02  4.0824047381807990e-03 -6.7620231103404649e-07 3.7344317989491227e-02  2.0344151235766536e-03 -8.9266737846038779e-07 2.9123546384581291e-02  1.3116977665716401e-03 -1.1390038623382281e-06 1.6102500846187782e-02  0.0000000000000000e+00 -1.4149729978818470e-06 1.4149729978818470e-06  3.0065566986996563e-02 0.0000000000000000e+00 -9.2484759989241994e-08  2.6386603534434130e-02 -9.9029957761898046e-08 2.9844389267026455e-02  2.1915164979612878e-02 -2.2268019939097883e-07 5.3266259408855821e-02  1.7474471801775110e-02 -3.7356494286822084e-07 6.7863802100668780e-02  1.3289691795290520e-02 -5.5407651300409810e-07 7.2377335202580051e-02  9.4841584864011619e-03 -7.6623760203453628e-07 6.6241947729768991e-02  6.7269971450470006e-03 -1.0115246613651152e-06 4.9846081492980032e-02  6.8878152587329780e-03 -1.2906604638374120e-06 2.5685446130329581e-02  2.0964642177823123e-07 -1.6172135873238069e-06 1.3658139441652395e-06  4.0490773418356954e-02 0.0000000000000000e+00 -2.0713846654585311e-07  3.4926207616879479e-02 -1.1221564358288028e-07 4.0643684481628167e-02  2.8448826702985194e-02 -2.5232972356015182e-07 7.1871759378045408e-02  2.2311667167681223e-02 -4.2330453742245311e-07 9.0562138062280639e-02  1.6799692159379792e-02 -6.2785094434580913e-07 9.5392926791057597e-02  1.1913409464903338e-02 -8.6826095446745910e-07 8.6071584804302992e-02  8.3491836039499140e-03 -1.1462076032753288e-06 6.3594544956813270e-02  8.6496709400488633e-03 -1.4625099082898885e-06 3.1802619592193326e-02  4.7141398529237932e-07 -1.8457399952875875e-06 1.2826792650244556e-06  4.6532674567831785e-02 0.0000000000000000e+00 -3.4608794308166324e-07  3.9153273427533566e-02 -1.2715698288756627e-07 4.7330753355052158e-02  3.1313371926357525e-02 -2.8592703571472811e-07 8.2508993399707409e-02  2.4501433256141625e-02 -4.7966688143663561e-07 1.0249668644379872e-01  1.8878170858838889e-02 -7.1144832514136169e-07 1.0646814080295308e-01  1.4072838993843109e-02 -9.8386855507115456e-07 9.4721932815082566e-02  1.0406193742320005e-02 -1.2988233715205411e-06 6.8848170614493887e-02  1.0744383457121989e-02 -1.6572408387816040e-06 3.3476890274956039e-02  7.9083699122683981e-07 -2.1034024166866061e-06 1.1626378504381307e-06  4.7463360299960108e-02 0.0000000000000000e+00 -5.1118913868553051e-07  3.8661948004361180e-02 -1.4408773837959465e-07 4.9076640954074130e-02  3.0559587013811576e-02 -3.2399777794012152e-07 8.3804429037736883e-02  2.4590037195178827e-02 -5.4353378498017690e-07 1.0213265219981127e-01  2.0595616179227311e-02 -8.0617656927906012e-07 1.0422968142231692e-01  1.7609239182349468e-02 -1.1148691321238857e-06 9.1171844590173245e-02  1.5063633639873744e-02 -1.4717596941160593e-06 6.5014056284735444e-02  1.5400923184815403e-02 -1.8778998955859549e-06 3.0536324005111304e-02  1.1729799878068548e-06 -2.3932917685431931e-06 1.0037356241721085e-06  4.2762339412965839e-02 0.0000000000000000e+00 -7.0388252737529911e-07  3.3283857392571767e-02 -1.6327279778183268e-07 4.5164753158230930e-02  2.6263818490987176e-02 -3.6713758122530749e-07 7.4811589232184561e-02  2.2670489302978242e-02 -6.1590446698289725e-07 8.8725341037208860e-02  2.2005219111283586e-02 -9.1351773146008952e-07 8.8319089744556045e-02  2.2779143643997121e-02 -1.2633122343785885e-06 7.5435716281543552e-02  2.3084324782886176e-02 -1.6677222216543441e-06 5.2415646925043191e-02  2.3257192396268569e-02 -2.1279393580542205e-06 2.3522820963572499e-02  1.6221250169756729e-06 -2.7187602158473823e-06 8.0540913249826929e-07  3.2494919501699866e-02 0.0000000000000000e+00 -9.2502189308341087e-07  2.3565738246576290e-02 -1.8501231813239372e-07 3.5364230708796240e-02  1.8784986494424810e-02 -4.1602138201035643e-07 5.5907403944565948e-02  1.8183960493981022e-02 -6.9791119439166494e-07 6.3685918687447662e-02  2.1165730632487487e-02 -1.0351512049755485e-06 6.1123849725325696e-02  2.6382676902694330e-02 -1.4315203018533396e-06 5.0470388294926227e-02  3.0996868381822015e-02 -1.8897768541137339e-06 3.3980083224073976e-02  3.0858059305895663e-02 -2.4112711907164908e-06 1.4656434294859189e-02  2.1413977160378295e-06 -3.0834465508666753e-06 5.6897634725938673e-07  1.8063625772311038e-02 0.0000000000000000e+00 -1.1746749541963197e-06  1.1713352790365873e-02 -2.0964642177823123e-07 2.1239606273868672e-02  9.3951191591539682e-03 -4.7141398529237932e-07 3.1492338902879724e-02  1.0214183343034637e-02 -7.9083699122683981e-07 3.4419421589916288e-02  1.3494587610962727e-02 -1.1729799878068548e-06 3.2758058333338447e-02  1.8379508381234776e-02 -1.6221250169756729e-06 2.8332628807849147e-02  2.2612441554740834e-02 -2.1413977160378295e-06 2.2003839601947739e-02  1.9801079224250825e-02 -2.7323282205671262e-06 1.3011435561582907e-02  2.7323282205671262e-06 -3.4913078590381730e-06 2.9821027003329448e-07  1.4149729978818470e-06 0.0000000000000000e+00 -1.4149729978818470e-06  1.6172135873238069e-06 -2.0964642177823123e-07 -1.3658139441652395e-06  1.8457399952875875e-06 -4.7141398529237932e-07 -1.2826792650244556e-06  2.1034024166866061e-06 -7.9083699122683981e-07 -1.1626378504381307e-06  2.3932917685431931e-06 -1.1729799878068548e-06 -1.0037356241721085e-06  2.7187602158473823e-06 -1.6221250169756729e-06 -8.0540913249826929e-07  3.0834465508666753e-06 -2.1413977160378295e-06 -5.6897634725938673e-07  3.4913078590381730e-06 -2.7323282205671262e-06 -2.9821027003329448e-07  3.3943437687256051e-06 -3.3943437687256051e-06 0.0000000000000000e+00  3.0130789288970911e-02 8.7393630998633398e-08 5.0911289906085955e-09  2.6416193641463512e-02 1.5622479271966180e-02 1.4387998777529179e-02  2.1866392848153823e-02 2.8060936601744524e-02 2.5606312628606742e-02  1.7271045044904870e-02 3.6064679514567599e-02 3.2495615016633783e-02  1.2855622038541320e-02 3.8830199773247087e-02 3.4521421983674888e-02  8.7293637498986471e-03 3.5855273836376655e-02 3.1535152397260763e-02  5.4862277391183947e-03 2.7123118440121718e-02 2.3849719047477458e-02  5.0531143623649966e-03 1.3752502582518922e-02 1.2676422476063987e-02  -2.0964642177823123e-07 -1.3519748229273709e-06 1.6033744660859384e-06  5.6294077900678509e-02 9.9029957761898046e-08 -9.9029957761898046e-08  5.0018130883925760e-02 1.5472178917424069e-02 2.7608763066620703e-02  4.3035921104570246e-02 2.7375112659226403e-02 4.8961342999883195e-02  3.6943857751189579e-02 3.4774750500451423e-02 6.1543504045721065e-02  3.1892542794373577e-02 3.7074309755139256e-02 6.4390829529333074e-02  2.7602555601372508e-02 3.3934095290687472e-02 5.7389330698447108e-02  2.4668345758318153e-02 2.5467054324661342e-02 4.1512565986171646e-02  2.6049426439887266e-02 1.2872438227036653e-02 2.0052656124333247e-02  2.9585699077132523e-02 -1.5476699606331579e-06 1.5476699606331579e-06  7.5568936291530234e-02 1.1221564358288028e-07 -2.2818149394976395e-07  6.6391671147938577e-02 1.6479727177128645e-02 3.7035946221487454e-02  5.6664914463889160e-02 2.8232480175970548e-02 6.5305589991771079e-02  4.8620432633105531e-02 3.5253134068778169e-02 8.1093476557704103e-02  4.2249898040303074e-02 3.7462888315811904e-02 8.3275007468934348e-02  3.6807005189243736e-02 3.4749384919785964e-02 7.2128362465634976e-02  3.2784593628969697e-02 2.7042451168549420e-02 4.9723739957729274e-02  3.4150626037440540e-02 1.4735971710838847e-02 2.1807229681761076e-02  4.1662766349926939e-02 -1.7686938897920612e-06 1.4534660262022214e-06  8.6379632496974321e-02 1.2715698288756627e-07 -3.8476146757560059e-07  7.4205061713296716e-02 1.8793305126784749e-02 4.2022963351809703e-02  6.2406301339435755e-02 3.0954687527295466e-02 7.3207604768639745e-02  5.3572159258742147e-02 3.7999749898866453e-02 8.9261194110076381e-02  4.7285968310964627e-02 4.0700890341943241e-02 8.9357112549846796e-02  4.1961972223087646e-02 3.9216154529257974e-02 7.4473326558736619e-02  3.7378338607090361e-02 3.2856791193781376e-02 4.7913539686314621e-02  3.8148312924869809e-02 2.0087848079611614e-02 1.7737009628257638e-02  4.6924024115902574e-02 -2.0176828743334596e-06 1.3174412831773452e-06  8.7539657120094552e-02 1.4408773837959465e-07 -5.7085932878009338e-07  7.2680068967417660e-02 2.2091423418392306e-02 4.2026241987977123e-02  6.0200650516953641e-02 3.4950654430351669e-02 7.1778656753492875e-02  5.2707442680052258e-02 4.2222788593608396e-02 8.5139246376379818e-02  4.9144311387884415e-02 4.5873976438159492e-02 8.2007289832604080e-02  4.6690547401827043e-02 4.6450388919061281e-02 6.4180974050710216e-02  4.3443443295712481e-02 4.2331748736894159e-02 3.6070673496936934e-02  4.3549789030077515e-02 2.8883320963950077e-02 7.7749508109881127e-03  5.0519442110330992e-02 -2.2974669229292033e-06 1.1373814674531246e-06  7.8273096197015987e-02 1.6327279778183268e-07 -7.8809191533801837e-07  6.1550574527223914e-02 2.5701786046405189e-02 3.6628592591418790e-02  5.0158592210274078e-02 3.9008517946150012e-02 6.0652460357386029e-02  4.6176234912199771e-02 4.6270334058362561e-02 6.8868506842196808e-02  4.7993826841925991e-02 5.0899178852098048e-02 6.2105771229992390e-02  5.1717236192864058e-02 5.4076461105042828e-02 4.2785437042506480e-02  5.2889786317648374e-02 5.3394076277877289e-02 1.5926881340242893e-02  5.2578063890914267e-02 4.0302602402437326e-02 -6.9255221126032218e-03  5.5170495523433338e-02 -2.6110825654956926e-06 9.1264811197255824e-07  5.9130917264922755e-02 1.8501231813239372e-07 -1.0374092072051866e-06  4.2216804649179415e-02 2.8790894083954331e-02 2.5908811113512811e-02  3.3464533248743364e-02 4.1837274062505814e-02 4.0859158666470496e-02  3.3502806958252085e-02 4.8476143935192284e-02 4.3071446260053103e-02  4.0698523714717882e-02 5.3441669862166252e-02 3.4099099195672666e-02  5.1413194370560023e-02 5.8754557007870911e-02 1.6363050314863070e-02  5.9364914480094413e-02 6.2079007878797832e-02 -5.7206210764664256e-03  5.8928991851742982e-02 5.1728822065469693e-02 -2.1180708523499181e-02  6.0021337711778866e-02 -2.9617896417644118e-06 6.4473466809822355e-07  3.3978357013340427e-02 2.0964642177823123e-07 -1.3188681233788913e-06  2.0217924941509563e-02 3.0679146515544192e-02 1.1482207157394859e-02  1.4577567520727003e-02 4.3051892425980176e-02 1.7082999952826361e-02  1.5560868562579044e-02 4.8807453242582399e-02 1.6009696373368021e-02  2.1732807173463389e-02 5.3272300798885563e-02 9.9461862450671568e-03  3.0847575799981139e-02 5.8936327811443423e-02 5.6579488995733840e-04  3.7671920760884728e-02 6.4177474597751694e-02 -1.0179878600701908e-02  3.1388605999356625e-02 5.7207247026994423e-02 -1.7593803133480357e-02  5.4338136421111294e-02 -3.3530937039172315e-06 3.3791650622116975e-07  1.3519748229273709e-06 2.0964642177823123e-07 -1.6033744660859384e-06  1.5476699606331579e-06 3.0679146515544192e-02 -1.5476699606331579e-06  1.7686938897920612e-06 4.3051892425980176e-02 -1.4534660262022214e-06  2.0176828743334596e-06 4.8807453242582399e-02 -1.3174412831773452e-06  2.2974669229292033e-06 5.3272300798885563e-02 -1.1373814674531246e-06  2.6110825654956926e-06 5.8936327811443423e-02 -9.1264811197255824e-07  2.9617896417644118e-06 6.4177474597751694e-02 -6.4473466809822355e-07  3.3530937039172315e-06 5.7207247026994423e-02 -3.3791650622116975e-07  3.2764173267807450e-06 7.6889863445823325e-02 0.0000000000000000e+00  4.0633738988756871e-02 1.9651458610381312e-07 1.0623880442039990e-08  3.4987033582428662e-02 2.8018480360385623e-02 1.2889594429258799e-02  2.8366911721530039e-02 5.0330024578981135e-02 2.2172288480003501e-02  2.1944083704037484e-02 6.4248393550973393e-02 2.7423373728444889e-02  1.6033831837762288e-02 6.8349815619880627e-02 2.8616640573442265e-02  1.0656446442225562e-02 6.2001819805308056e-02 2.5961862749958931e-02  6.4038108657084869e-03 4.5675892204935620e-02 1.9832661537762530e-02  5.8661541873627973e-03 2.2231832430180232e-02 1.0904392341979707e-02  -4.7141398529237932e-07 -1.2538005635942540e-06 1.8168612938573858e-06  7.5721405509916850e-02 2.2268019939097883e-07 -1.0671434902409516e-07  6.6470865991258607e-02 2.7343520662910153e-02 2.6287309507576961e-02  5.6625439695361740e-02 4.8539535010280174e-02 4.5254984599259154e-02  4.8373434993949499e-02 6.1202611260462114e-02 5.5589993591182441e-02  4.1761984797884344e-02 6.4203282589097133e-02 5.7193028871909385e-02  3.6104986216235119e-02 5.7214875054063641e-02 5.0542233688529226e-02  3.1834082671528721e-02 4.1091450559349818e-02 3.6696109602143256e-02  3.2940870173832987e-02 1.9224753711158726e-02 1.8082708433187877e-02  4.1004500924023302e-02 -1.4385119535553770e-06 1.7537398173672614e-06  1.0084063277544884e-01 2.5232972356015182e-07 -2.5232972356015182e-07  8.7732042102485100e-02 2.8171070447552654e-02 3.5103950005889770e-02  7.4222461959616876e-02 4.8635750865204705e-02 6.0129675893547105e-02  6.3335644673241959e-02 6.0185330815367977e-02 7.2639196962129199e-02  5.4843179769815315e-02 6.2463667522224098e-02 7.2518937006819634e-02  4.7447400540263390e-02 5.5558358090376680e-02 6.0919583298116170e-02  4.1580283503498155e-02 4.0291881826202136e-02 4.0477844305734645e-02  4.2636370731695475e-02 1.9472088127787668e-02 1.6735700827703495e-02  5.7388312617272716e-02 -1.6469927768270054e-06 1.6469927768270054e-06  1.1413098545829026e-01 2.8592703571472811e-07 -4.2892806034755537e-07  9.6912723524102823e-02 3.0826390014141031e-02 3.9435525192818649e-02  8.0323317761564483e-02 5.1323985181333735e-02 6.6463364335591080e-02  6.7931145435762563e-02 6.2317704371856464e-02 7.8036517440537412e-02  5.9010283382218531e-02 6.4761949382339146e-02 7.4365922697608111e-02  5.1295634586405375e-02 5.9212977195950645e-02 5.7626513362842080e-02  4.4562272798469194e-02 4.5749634900561276e-02 3.2501541334231332e-02  4.5108352384694045e-02 2.4868670183788577e-02 8.1173832155636561e-03  6.2316396025810850e-02 -1.8815736404498296e-06 1.4928565539307215e-06  1.1439451936394054e-01 3.2399777794012152e-07 -6.3886402856816460e-07  9.3171485711732338e-02 3.4765814330920963e-02 3.9267384864970278e-02  7.4918388553863208e-02 5.5598992397139765e-02 6.4259799761581429e-02  6.3392064801718578e-02 6.6238292831982126e-02 7.2092719172841102e-02  5.7136620280185291e-02 6.9529400684282705e-02 6.3641688136359842e-02  5.2457991376193891e-02 6.6684480260153611e-02 4.2158699172794689e-02  4.7321973105350523e-02 5.6477653714019027e-02 1.4335697810945014e-02  4.7675499000797414e-02 3.5214093339299701e-02 -6.9614445658459090e-03  6.3703538345985411e-02 -2.1447172595667752e-06 1.2888220521922733e-06  1.0098609759456370e-01 3.6713758122530749e-07 -8.8395503416993648e-07  7.6590944975309189e-02 3.8893768297596665e-02 3.4378986402357870e-02  5.8760520948257955e-02 5.9458359573492936e-02 5.3605993679831265e-02  5.0738514747653729e-02 6.9165221018266720e-02 5.5805459621731224e-02  5.0429350154262947e-02 7.3208041492812681e-02 4.2618528054794824e-02  5.2874667635077227e-02 7.3865916378281549e-02 1.7916113656376575e-02  5.3217064283068244e-02 6.8753235181393979e-02 -1.0403606810406529e-02  5.4324779895796663e-02 4.8673740076821126e-02 -2.6228298736170608e-02  6.6361299560736775e-02 -2.4390212887137608e-06 1.0341657967760653e-06  7.5055779543473783e-02 4.1602138201035643e-07 -1.1652608660206454e-06  4.9928840092869270e-02 4.2020132718502745e-02 2.4415404809630392e-02  3.4995332231539278e-02 6.1073810974938213e-02 3.5101656537962302e-02  3.1625027798761196e-02 6.8753190944172760e-02 3.1799486550209144e-02  3.7675929987540602e-02 7.2458108746235039e-02 1.6568352951440213e-02  4.8450674224208193e-02 7.5876625451322566e-02 -7.1417784339853352e-03  5.7039088364192442e-02 7.6678093095403632e-02 -3.2259340455923269e-02  5.9542903190590191e-02 6.1135726798096535e-02 -4.2308255413171292e-02  7.0096961295073701e-02 -2.7672241682541454e-06 7.3058009131266033e-07  4.2295489414553217e-02 4.7141398529237932e-07 -1.4828271340805443e-06  2.2324634013332983e-02 4.3528991509231285e-02 9.4025169393835428e-03  1.2508394073238602e-02 6.0614911816578396e-02 1.1569294122568699e-02  1.1378375441314689e-02 6.6073925235864972e-02 6.8025086655084666e-03  1.7257705792893832e-02 6.8374007553694494e-02 -3.3247806521337075e-03  2.7308878899073408e-02 7.2101678273387204e-02 -1.6815762164658743e-02  3.5584326010336662e-02 7.6004900714154555e-02 -3.0118832268689388e-02  3.1533085664193689e-02 6.5871307116732503e-02 -3.4234727835131373e-02  6.1989325645036786e-02 -3.1322155474855506e-06 3.8290956638764584e-07  1.2538005635942540e-06 4.7141398529237932e-07 -1.8168612938573858e-06  1.4385119535553770e-06 4.3528991509231285e-02 -1.7537398173672614e-06  1.6469927768270054e-06 6.0614911816578396e-02 -1.6469927768270054e-06  1.8815736404498296e-06 6.6073925235864972e-02 -1.4928565539307215e-06  2.1447172595667752e-06 6.8374007553694494e-02 -1.2888220521922733e-06  2.4390212887137608e-06 7.2101678273387204e-02 -1.0341657967760653e-06  2.7672241682541454e-06 7.6004900714154555e-02 -7.3058009131266033e-07  3.1322155474855506e-06 6.5871307116732503e-02 -3.8290956638764584e-07  3.0769876007141761e-06 8.3834135355262560e-02 0.0000000000000000e+00  4.6788633386433978e-02 3.2966990493044079e-07 1.6418038151222447e-08  3.9248890558720162e-02 3.5965472587738190e-02 1.1698259753719187e-02  3.1183124028994813e-02 6.4224937928748060e-02 1.9043768418309348e-02  2.3906034584742886e-02 8.1079698903653921e-02 2.2768047859297799e-02  1.7666826711660366e-02 8.4880410476906087e-02 2.3517746136047513e-02  1.2209320908330989e-02 7.5245925646253764e-02 2.1805198044817842e-02  7.7973547439385837e-03 5.3452602340315236e-02 1.7763181434502728e-02  7.2572168059809941e-03 2.4251113018907811e-02 1.0930768777370536e-02  -7.9083699122683981e-07 -1.1180090000451059e-06 2.0587735667376705e-06  8.6821793763845703e-02 3.7356494286822084e-07 -1.1596045818018652e-07  7.4489917832536584e-02 3.4664460260456942e-02 2.6364083173479158e-02  6.2428664866296141e-02 6.1177475169393619e-02 4.3427326014065376e-02  5.3069184874555586e-02 7.6090658764460223e-02 5.1941894897150037e-02  4.6172583327562022e-02 7.8078363378172699e-02 5.3106308060964447e-02  4.0418182990788892e-02 6.7203157426730553e-02 4.7961226507223453e-02  3.5586250152877419e-02 4.5448281089284004e-02 3.6998432250034741e-02  3.6234529963783513e-02 1.8695430851522588e-02 2.0346125086568856e-02  4.6001829222528157e-02 -1.2870059722391858e-06 1.9872475633953002e-06  1.1447944285793621e-01 4.2330453742245311e-07 -2.8030351278962584e-07  9.7212667622404769e-02 3.4970008791766816e-02 3.5376776795050857e-02  8.0506723336309594e-02 5.9978195730458261e-02 5.7985489896363124e-02  6.7797813008435348e-02 7.2861974143429209e-02 6.7824934564334749e-02  5.8504010724670624e-02 7.3194299750501013e-02 6.6452268760170019e-02  5.0596343681820533e-02 6.1653108384635336e-02 5.5896053275141244e-02  4.3901064153413494e-02 4.0586630293767856e-02 3.8442279997687456e-02  4.4698748227110577e-02 1.5987798606713621e-02 1.7423594000579579e-02  6.2179716729356294e-02 -1.4775702334990370e-06 1.8662873202401897e-06  1.2822244734152932e-01 4.7966688143663561e-07 -4.7966688143663561e-07  1.0553747808511928e-01 3.7405818031586269e-02 3.9946467435888158e-02  8.4484432704141965e-02 6.1737331567824683e-02 6.4085980226033040e-02  6.9235955707899949e-02 7.3139686254481445e-02 7.2001833034699175e-02  5.8744494798933400e-02 7.2752582760308271e-02 6.5799766901617540e-02  5.0063537210928891e-02 6.1966144814943225e-02 4.8908333760613917e-02  4.2496029189845380e-02 4.2719372192666194e-02 2.6290715626459099e-02  4.3247364773211248e-02 1.9164857314257322e-02 5.6927731604205986e-03  6.3197829488856272e-02 -1.6916280918266580e-06 1.6916280918266580e-06  1.2729840193044667e-01 5.4353378498017690e-07 -7.1670703960524662e-07  9.8972681361977066e-02 4.1341006872659403e-02 4.0738017858001685e-02  7.4781704589877485e-02 6.5258254638533353e-02 6.2882809107914