<?xml version="1.0"?>
<VTKFile type="UnstructuredGrid"  version="0.1"  >
<UnstructuredGrid>
<Piece  NumberOfPoints="16641" NumberOfCells="32768">
<Points>
<DataArray  type="Float64"  NumberOfComponents="3"  format="ascii">0 0 0  0.0078125 0 0  0.015625 0 0  0.0234375 0 0  0.03125 0 0  0.0390625 0 0  0.046875 0 0  0.0546875 0 0  0.0625 0 0  0.0703125 0 0  0.078125 0 0  0.0859375 0 0  0.09375 0 0  0.1015625 0 0  0.109375 0 0  0.1171875 0 0  0.125 0 0  0.1328125 0 0  0.140625 0 0  0.1484375 0 0  0.15625 0 0  0.1640625 0 0  0.171875 0 0  0.1796875 0 0  0.1875 0 0  0.1953125 0 0  0.203125 0 0  0.2109375 0 0  0.21875 0 0  0.2265625 0 0  0.234375 0 0  0.2421875 0 0  0.25 0 0  0.2578125 0 0  0.265625 0 0  0.2734375 0 0  0.28125 0 0  0.2890625 0 0  0.296875 0 0  0.3046875 0 0  0.3125 0 0  0.3203125 0 0  0.328125 0 0  0.3359375 0 0  0.34375 0 0  0.3515625 0 0  0.359375 0 0  0.3671875 0 0  0.375 0 0  0.3828125 0 0  0.390625 0 0  0.3984375 0 0  0.40625 0 0  0.4140625 0 0  0.421875 0 0  0.4296875 0 0  0.4375 0 0  0.4453125 0 0  0.453125 0 0  0.4609375 0 0  0.46875 0 0  0.4765625 0 0  0.484375 0 0  0.4921875 0 0  0.5 0 0  0.5078125 0 0  0.515625 0 0  0.5234375 0 0  0.53125 0 0  0.5390625 0 0  0.546875 0 0  0.5546875 0 0  0.5625 0 0  0.5703125 0 0  0.578125 0 0  0.5859375 0 0  0.59375 0 0  0.6015625 0 0  0.609375 0 0  0.6171875 0 0  0.625 0 0  0.6328125 0 0  0.640625 0 0  0.6484375 0 0  0.65625 0 0  0.6640625 0 0  0.671875 0 0  0.6796875 0 0  0.6875 0 0  0.6953125 0 0  0.703125 0 0  0.7109375 0 0  0.71875 0 0  0.7265625 0 0  0.734375 0 0  0.7421875 0 0  0.75 0 0  0.7578125 0 0  0.765625 0 0  0.7734375 0 0  0.78125 0 0  0.7890625 0 0  0.796875 0 0  0.8046875 0 0  0.8125 0 0  0.8203125 0 0  0.828125 0 0  0.8359375 0 0  0.84375 0 0  0.8515625 0 0  0.859375 0 0  0.8671875 0 0  0.875 0 0  0.8828125 0 0  0.890625 0 0  0.8984375 0 0  0.90625 0 0  0.9140625 0 0  0.921875 0 0  0.9296875 0 0  0.9375 0 0  0.9453125 0 0  0.953125 0 0  0.9609375 0 0  0.96875 0 0  0.9765625 0 0  0.984375 0 0  0.9921875 0 0  1 0 0  0 0.0078125 0  0.0078125 0.0078125 0  0.015625 0.0078125 0  0.0234375 0.0078125 0  0.03125 0.0078125 0  0.0390625 0.0078125 0  0.046875 0.0078125 0  0.0546875 0.0078125 0  0.0625 0.0078125 0  0.0703125 0.0078125 0  0.078125 0.0078125 0  0.0859375 0.0078125 0  0.09375 0.0078125 0  0.1015625 0.0078125 0  0.109375 0.0078125 0  0.1171875 0.0078125 0  0.125 0.0078125 0  0.1328125 0.0078125 0  0.140625 0.0078125 0  0.1484375 0.0078125 0  0.15625 0.0078125 0  0.1640625 0.0078125 0  0.171875 0.0078125 0  0.1796875 0.0078125 0  0.1875 0.0078125 0  0.1953125 0.0078125 0  0.203125 0.0078125 0  0.2109375 0.0078125 0  0.21875 0.0078125 0  0.2265625 0.0078125 0  0.234375 0.0078125 0  0.2421875 0.0078125 0  0.25 0.0078125 0  0.2578125 0.0078125 0  0.265625 0.0078125 0  0.2734375 0.0078125 0  0.28125 0.0078125 0  0.2890625 0.0078125 0  0.296875 0.0078125 0  0.3046875 0.0078125 0  0.3125 0.0078125 0  0.3203125 0.0078125 0  0.328125 0.0078125 0  0.3359375 0.0078125 0  0.34375 0.0078125 0  0.3515625 0.0078125 0  0.359375 0.0078125 0  0.3671875 0.0078125 0  0.375 0.0078125 0  0.3828125 0.0078125 0  0.390625 0.0078125 0  0.3984375 0.0078125 0  0.40625 0.0078125 0  0.4140625 0.0078125 0  0.421875 0.0078125 0  0.4296875 0.0078125 0  0.4375 0.0078125 0  0.4453125 0.0078125 0  0.453125 0.0078125 0  0.4609375 0.0078125 0  0.46875 0.0078125 0  0.4765625 0.0078125 0  0.484375 0.0078125 0  0.4921875 0.0078125 0  0.5 0.0078125 0  0.5078125 0.0078125 0  0.515625 0.0078125 0  0.5234375 0.0078125 0  0.53125 0.0078125 0  0.5390625 0.0078125 0  0.546875 0.0078125 0  0.5546875 0.0078125 0  0.5625 0.0078125 0  0.5703125 0.0078125 0  0.578125 0.0078125 0  0.5859375 0.0078125 0  0.59375 0.0078125 0  0.6015625 0.0078125 0  0.609375 0.0078125 0  0.6171875 0.0078125 0  0.625 0.0078125 0  0.6328125 0.0078125 0  0.640625 0.0078125 0  0.6484375 0.0078125 0  0.65625 0.0078125 0  0.6640625 0.0078125 0  0.671875 0.0078125 0  0.6796875 0.0078125 0  0.6875 0.0078125 0  0.6953125 0.0078125 0  0.703125 0.0078125 0  0.7109375 0.0078125 0  0.71875 0.0078125 0  0.7265625 0.0078125 0  0.734375 0.0078125 0  0.7421875 0.0078125 0  0.75 0.0078125 0  0.7578125 0.0078125 0  0.765625 0.0078125 0  0.7734375 0.0078125 0  0.78125 0.0078125 0  0.7890625 0.0078125 0  0.796875 0.0078125 0  0.8046875 0.0078125 0  0.8125 0.0078125 0  0.8203125 0.0078125 0  0.828125 0.0078125 0  0.8359375 0.0078125 0  0.84375 0.0078125 0  0.8515625 0.0078125 0  0.859375 0.0078125 0  0.8671875 0.0078125 0  0.875 0.0078125 0  0.8828125 0.0078125 0  0.890625 0.0078125 0  0.8984375 0.0078125 0  0.90625 0.0078125 0  0.9140625 0.0078125 0  0.921875 0.0078125 0  0.9296875 0.0078125 0  0.9375 0.0078125 0  0.9453125 0.0078125 0  0.953125 0.0078125 0  0.9609375 0.0078125 0  0.96875 0.0078125 0  0.9765625 0.0078125 0  0.984375 0.0078125 0  0.9921875 0.0078125 0  1 0.0078125 0  0 0.015625 0  0.0078125 0.015625 0  0.015625 0.015625 0  0.0234375 0.015625 0  0.03125 0.015625 0  0.0390625 0.015625 0  0.046875 0.015625 0  0.0546875 0.015625 0  0.0625 0.015625 0  0.0703125 0.015625 0  0.078125 0.015625 0  0.0859375 0.015625 0  0.09375 0.015625 0  0.1015625 0.015625 0  0.109375 0.015625 0  0.1171875 0.015625 0  0.125 0.015625 0  0.1328125 0.015625 0  0.140625 0.015625 0  0.1484375 0.015625 0  0.15625 0.015625 0  0.1640625 0.015625 0  0.171875 0.015625 0  0.1796875 0.015625 0  0.1875 0.015625 0  0.1953125 0.015625 0  0.203125 0.015625 0  0.2109375 0.015625 0  0.21875 0.015625 0  0.2265625 0.015625 0  0.234375 0.015625 0  0.2421875 0.015625 0  0.25 0.015625 0  0.2578125 0.015625 0  0.265625 0.015625 0  0.2734375 0.015625 0  0.28125 0.015625 0  0.2890625 0.015625 0  0.296875 0.015625 0  0.3046875 0.015625 0  0.3125 0.015625 0  0.3203125 0.015625 0  0.328125 0.015625 0  0.3359375 0.015625 0  0.34375 0.015625 0  0.3515625 0.015625 0  0.359375 0.015625 0  0.3671875 0.015625 0  0.375 0.015625 0  0.3828125 0.015625 0  0.390625 0.015625 0  0.3984375 0.015625 0  0.40625 0.015625 0  0.4140625 0.015625 0  0.421875 0.015625 0  0.4296875 0.015625 0  0.4375 0.015625 0  0.4453125 0.015625 0  0.453125 0.015625 0  0.4609375 0.015625 0  0.46875 0.015625 0  0.4765625 0.015625 0  0.484375 0.015625 0  0.4921875 0.015625 0  0.5 0.015625 0  0.5078125 0.015625 0  0.515625 0.015625 0  0.5234375 0.015625 0  0.53125 0.015625 0  0.5390625 0.015625 0  0.546875 0.015625 0  0.5546875 0.015625 0  0.5625 0.015625 0  0.5703125 0.015625 0  0.578125 0.015625 0  0.5859375 0.015625 0  0.59375 0.015625 0  0.6015625 0.015625 0  0.609375 0.015625 0  0.6171875 0.015625 0  0.625 0.015625 0  0.6328125 0.015625 0  0.640625 0.015625 0  0.6484375 0.015625 0  0.65625 0.015625 0  0.6640625 0.015625 0  0.671875 0.015625 0  0.6796875 0.015625 0  0.6875 0.015625 0  0.6953125 0.015625 0  0.703125 0.015625 0  0.7109375 0.015625 0  0.71875 0.015625 0  0.7265625 0.015625 0  0.734375 0.015625 0  0.7421875 0.015625 0  0.75 0.015625 0  0.7578125 0.015625 0  0.765625 0.015625 0  0.7734375 0.015625 0  0.78125 0.015625 0  0.7890625 0.015625 0  0.796875 0.015625 0  0.8046875 0.015625 0  0.8125 0.015625 0  0.8203125 0.015625 0  0.828125 0.015625 0  0.8359375 0.015625 0  0.84375 0.015625 0  0.8515625 0.015625 0  0.859375 0.015625 0  0.8671875 0.015625 0  0.875 0.015625 0  0.8828125 0.015625 0  0.890625 0.015625 0  0.8984375 0.015625 0  0.90625 0.015625 0  0.9140625 0.015625 0  0.921875 0.015625 0  0.9296875 0.015625 0  0.9375 0.015625 0  0.9453125 0.015625 0  0.953125 0.015625 0  0.9609375 0.015625 0  0.96875 0.015625 0  0.9765625 0.015625 0  0.984375 0.015625 0  0.9921875 0.015625 0  1 0.015625 0  0 0.0234375 0  0.0078125 0.0234375 0  0.015625 0.0234375 0  0.0234375 0.0234375 0  0.03125 0.0234375 0  0.0390625 0.0234375 0  0.046875 0.0234375 0  0.0546875 0.0234375 0  0.0625 0.0234375 0  0.0703125 0.0234375 0  0.078125 0.0234375 0  0.0859375 0.0234375 0  0.09375 0.0234375 0  0.1015625 0.0234375 0  0.109375 0.0234375 0  0.1171875 0.0234375 0  0.125 0.0234375 0  0.1328125 0.0234375 0  0.140625 0.0234375 0  0.1484375 0.0234375 0  0.15625 0.0234375 0  0.1640625 0.0234375 0  0.171875 0.0234375 0  0.1796875 0.0234375 0  0.1875 0.0234375 0  0.1953125 0.0234375 0  0.203125 0.0234375 0  0.2109375 0.0234375 0  0.21875 0.0234375 0  0.2265625 0.0234375 0  0.234375 0.0234375 0  0.2421875 0.0234375 0  0.25 0.0234375 0  0.2578125 0.0234375 0  0.265625 0.0234375 0  0.2734375 0.0234375 0  0.28125 0.0234375 0  0.2890625 0.0234375 0  0.296875 0.0234375 0  0.3046875 0.0234375 0  0.3125 0.0234375 0  0.3203125 0.0234375 0  0.328125 0.0234375 0  0.3359375 0.0234375 0  0.34375 0.0234375 0  0.3515625 0.0234375 0  0.359375 0.0234375 0  0.3671875 0.0234375 0  0.375 0.0234375 0  0.3828125 0.0234375 0  0.390625 0.0234375 0  0.3984375 0.0234375 0  0.40625 0.0234375 0  0.4140625 0.0234375 0  0.421875 0.0234375 0  0.4296875 0.0234375 0  0.4375 0.0234375 0  0.4453125 0.0234375 0  0.453125 0.0234375 0  0.4609375 0.0234375 0  0.46875 0.0234375 0  0.4765625 0.0234375 0  0.484375 0.0234375 0  0.4921875 0.0234375 0  0.5 0.0234375 0  0.5078125 0.0234375 0  0.515625 0.0234375 0  0.5234375 0.0234375 0  0.53125 0.0234375 0  0.5390625 0.0234375 0  0.546875 0.0234375 0  0.5546875 0.0234375 0  0.5625 0.0234375 0  0.5703125 0.0234375 0  0.578125 0.0234375 0  0.5859375 0.0234375 0  0.59375 0.0234375 0  0.6015625 0.0234375 0  0.609375 0.0234375 0  0.6171875 0.0234375 0  0.625 0.0234375 0  0.6328125 0.0234375 0  0.640625 0.0234375 0  0.6484375 0.0234375 0  0.65625 0.0234375 0  0.6640625 0.0234375 0  0.671875 0.0234375 0  0.6796875 0.0234375 0  0.6875 0.0234375 0  0.6953125 0.0234375 0  0.703125 0.0234375 0  0.7109375 0.0234375 0  0.71875 0.0234375 0  0.7265625 0.0234375 0  0.734375 0.0234375 0  0.7421875 0.0234375 0  0.75 0.0234375 0  0.7578125 0.0234375 0  0.765625 0.0234375 0  0.7734375 0.0234375 0  0.78125 0.0234375 0  0.7890625 0.0234375 0  0.796875 0.0234375 0  0.8046875 0.0234375 0  0.8125 0.0234375 0  0.8203125 0.0234375 0  0.828125 0.0234375 0  0.8359375 0.0234375 0  0.84375 0.0234375 0  0.8515625 0.0234375 0  0.859375 0.0234375 0  0.8671
[...]
<PointData  Vectors="f_1588"> 
<DataArray  type="Float64"  Name="f_1588"  NumberOfComponents="3" format="ascii">3.0483100708379555e-05 -1.7920266571769261e-05 0.0000000000000000e+00  3.0865921487509274e-05 -1.8274836150800056e-05 0.0000000000000000e+00  3.1225522915814125e-05 -1.8567491720133944e-05 0.0000000000000000e+00  3.1574769372925970e-05 -1.8822346988356387e-05 0.0000000000000000e+00  3.1918808391484532e-05 -1.9050621977045878e-05 0.0000000000000000e+00  3.2260009872137063e-05 -1.9258359488460997e-05 0.0000000000000000e+00  3.2599603328929694e-05 -1.9449202305565905e-05 0.0000000000000000e+00  3.2938288694543683e-05 -1.9625533133948991e-05 0.0000000000000000e+00  3.3276492318407014e-05 -1.9789003715575681e-05 0.0000000000000000e+00  3.3614486273494948e-05 -1.9940807933660487e-05 0.0000000000000000e+00  3.3952449254470718e-05 -2.0081835594099040e-05 0.0000000000000000e+00  3.4290500107503341e-05 -2.0212765298954771e-05 0.0000000000000000e+00  3.4628717480930660e-05 -2.0334123761789336e-05 0.0000000000000000e+00  3.4967151936432517e-05 -2.0446325465717230e-05 0.0000000000000000e+00  3.5305833744503357e-05 -2.0549700186167641e-05 0.0000000000000000e+00  3.5644778077353889e-05 -2.0644512698231310e-05 0.0000000000000000e+00  3.5983988578180970e-05 -2.0730977270622120e-05 0.0000000000000000e+00  3.6323459876752562e-05 -2.0809268568733330e-05 0.0000000000000000e+00  3.6663179400237000e-05 -2.0879530021389314e-05 0.0000000000000000e+00  3.7003128706025734e-05 -2.0941880342850716e-05 0.0000000000000000e+00  3.7343284477742156e-05 -2.0996418709007258e-05 0.0000000000000000e+00  3.7683619279055280e-05 -2.1043228905170963e-05 0.0000000000000000e+00  3.8024102134603943e-05 -2.1082382690829071e-05 0.0000000000000000e+00  3.8364698982884526e-05 -2.1113942559436438e-05 0.0000000000000000e+00  3.8705373029412904e-05 -2.1137964016926247e-05 0.0000000000000000e+00  3.9046085028054955e-05 -2.1154497475972533e-05 0.0000000000000000e+00  3.9386793506790418e-05 -2.1163589836836749e-05 0.0000000000000000e+00  3.9727454948235152e-05 -2.1165285817636992e-05 0.0000000000000000e+00  4.0068023935524444e-05 -2.1159629066680452e-05 0.0000000000000000e+00  4.0408453273910183e-05 -2.1146663101268004e-05 0.0000000000000000e+00  4.0748694085046555e-05 -2.1126432090512459e-05 0.0000000000000000e+00  4.1088695889701654e-05 -2.1098981513367754e-05 0.0000000000000000e+00  4.1428406672372464e-05 -2.1064358700195740e-05 0.0000000000000000e+00  4.1767772936129877e-05 -2.1022613274968016e-05 0.0000000000000000e+00  4.2106739747249655e-05 -2.0973797514201031e-05 0.0000000000000000e+00  4.2445250770739573e-05 -2.0917966626843310e-05 0.0000000000000000e+00  4.2783248301481169e-05 -2.0855178959777732e-05 0.0000000000000000e+00  4.3120673288321587e-05 -2.0785496145592219e-05 0.0000000000000000e+00  4.3457465354945768e-05 -2.0708983191064512e-05 0.0000000000000000e+00  4.3793562815586107e-05 -2.0625708513133389e-05 0.0000000000000000e+00  4.4128902687068372e-05 -2.0535743922578398e-05 0.0000000000000000e+00  4.4463420698692691e-05 -2.0439164571950386e-05 0.0000000000000000e+00  4.4797051300560220e-05 -2.0336048850988497e-05 0.0000000000000000e+00  4.5129727668458131e-05 -2.0226478249729674e-05 0.0000000000000000e+00  4.5461381706579651e-05 -2.0110537185757948e-05 0.0000000000000000e+00  4.5791944050799227e-05 -1.9988312792706964e-05 0.0000000000000000e+00  4.6121344067118208e-05 -1.9859894684115531e-05 0.0000000000000000e+00  4.6449509853552229e-05 -1.9725374679202545e-05 0.0000000000000000e+00  4.6776368234691112e-05 -1.9584846511988552e-05 0.0000000000000000e+00  4.7101844763308698e-05 -1.9438405502669731e-05 0.0000000000000000e+00  4.7425863712979854e-05 -1.9286148215003074e-05 0.0000000000000000e+00  4.7748348075304925e-05 -1.9128172085269846e-05 0.0000000000000000e+00  4.8069219554802700e-05 -1.8964575033586506e-05 0.0000000000000000e+00  4.8388398564691570e-05 -1.8795455055675703e-05 0.0000000000000000e+00  4.8705804215676274e-05 -1.8620909793654050e-05 0.0000000000000000e+00  4.9021354315059718e-05 -1.8441036098826302e-05 0.0000000000000000e+00  4.9334965356973015e-05 -1.8255929569943596e-05 0.0000000000000000e+00  4.9646552515381082e-05 -1.8065684085799560e-05 0.0000000000000000e+00  4.9956029635978005e-05 -1.7870391326502144e-05 0.0000000000000000e+00  5.0263309227638331e-05 -1.7670140277425972e-05 0.0000000000000000e+00  5.0568302455977765e-05 -1.7465016730611183e-05 0.0000000000000000e+00  5.0870919132250947e-05 -1.7255102778612752e-05 0.0000000000000000e+00  5.1171067706801132e-05 -1.7040476298690876e-05 0.0000000000000000e+00  5.1468655258846141e-05 -1.6821210436557266e-05 0.0000000000000000e+00  5.1763587488373730e-05 -1.6597373082682942e-05 0.0000000000000000e+00  5.2055768707148786e-05 -1.6369026346274573e-05 0.0000000000000000e+00  5.2345101827611096e-05 -1.6136226035579071e-05 0.0000000000000000e+00  5.2631488358545475e-05 -1.5899021124088364e-05 0.0000000000000000e+00  5.2914828390093760e-05 -1.5657453235173868e-05 0.0000000000000000e+00  5.3195020589646980e-05 -1.5411556109290458e-05 0.0000000000000000e+00  5.3471962193074596e-05 -1.5161355095050233e-05 0.0000000000000000e+00  5.3745548993178183e-05 -1.4906866627084625e-05 0.0000000000000000e+00  5.4015675333474178e-05 -1.4648097716896125e-05 0.0000000000000000e+00  5.4282234101976634e-05 -1.4385045448817024e-05 0.0000000000000000e+00  5.4545116721205211e-05 -1.4117696477744524e-05 0.0000000000000000e+00  5.4804213143522240e-05 -1.3846026537200906e-05 0.0000000000000000e+00  5.5059411844027295e-05 -1.3569999956830614e-05 0.0000000000000000e+00  5.5310599816116301e-05 -1.3289569175678473e-05 0.0000000000000000e+00  5.5557662565819399e-05 -1.3004674276562156e-05 0.0000000000000000e+00  5.5800484112689119e-05 -1.2715242518668290e-05 0.0000000000000000e+00  5.6038946979253268e-05 -1.2421187881805906e-05 0.0000000000000000e+00  5.6272932199008530e-05 -1.2122410610104772e-05 0.0000000000000000e+00  5.6502319313422866e-05 -1.1818796771145834e-05 0.0000000000000000e+00  5.6726986374266986e-05 -1.1510217810206669e-05 0.0000000000000000e+00  5.6946809948554833e-05 -1.1196530118218195e-05 0.0000000000000000e+00  5.7161665128702133e-05 -1.0877574588286087e-05 0.0000000000000000e+00  5.7371425540075904e-05 -1.0553176185590374e-05 0.0000000000000000e+00  5.7575963355815940e-05 -1.0223143509457966e-05 0.0000000000000000e+00  5.7775149315486551e-05 -9.8872683454986898e-06 0.0000000000000000e+00  5.7968852742951160e-05 -9.5453252169641623e-06 0.0000000000000000e+00  5.8156941580927990e-05 -9.1970709161504072e-06 0.0000000000000000e+00  5.8339282422936733e-05 -8.8422440260860213e-06 0.0000000000000000e+00  5.8515740549380801e-05 -8.4805644106067390e-06 0.0000000000000000e+00  5.8686179985639741e-05 -8.1117326755919539e-06 0.0000000000000000e+00  5.8850463559384503e-05 -7.7354295967835274e-06 0.0000000000000000e+00  5.9008452973019487e-05 -7.3513154916771128e-06 0.0000000000000000e+00  5.9160008890432603e-05 -6.9590295335569818e-06 0.0000000000000000e+00  5.9304991048211853e-05 -6.5581889880789168e-06 0.0000000000000000e+00  5.9443258378838459e-05 -6.1483883605772949e-06 0.0000000000000000e+00  5.9574669165722571e-05 -5.7291984273330487e-06 0.0000000000000000e+00  5.9699081227299056e-05 -5.3001651315887077e-06 0.0000000000000000e+00  5.9816352144970164e-05 -4.8608083049184181e-06 0.0000000000000000e+00  5.9926339532404005e-05 -4.4106201854826610e-06 0.0000000000000000e+00  6.0028901373104793e-05 -3.9490636745964647e-06 0.0000000000000000e+00  6.0123896426400592e-05 -3.4755702880140404e-06 0.0000000000000000e+00  6.0211184737771206e-05 -2.9895377108429821e-06 0.0000000000000000e+00  6.0290628266262969e-05 -2.4903268737996864e-06 0.0000000000000000e+00  6.0362091669485807e-05 -1.9772584287647277e-06 0.0000000000000000e+00  6.0425443302036808e-05 -1.4496084594362024e-06 0.0000000000000000e+00  6.0480556480668746e-05 -9.0660323992519665e-07 0.0000000000000000e+00  6.0527311122021699e-05 -3.4741275453664677e-07 0.0000000000000000e+00  6.0565595866923783e-05 2.2885736555844360e-07 0.0000000000000000e+00  6.0595310899969057e-05 8.2317599192638369e-07 0.0000000000000000e+00  6.0616371718502648e-05 1.4365993881160222e-06 0.0000000000000000e+00  6.0628714283139651e-05 2.0702878195111296e-06 0.0000000000000000e+00  6.0632302173901920e-05 2.7255272108117623e-06 0.0000000000000000e+00  6.0627136770463608e-05 3.4037578695578219e-06 0.0000000000000000e+00  6.0613272104048654e-05 4.1066132535627631e-06 0.0000000000000000e+00  6.0590837180241053e-05 4.8359734428071732e-06 0.0000000000000000e+00  6.0560070751836115e-05 5.5940407467369724e-06 0.0000000000000000e+00  6.0521377807098986e-05 6.3834498296166942e-06 0.0000000000000000e+00  6.0475426124861897e-05 7.2074340244920876e-06 0.0000000000000000e+00  6.0423321876723612e-05 8.0700878041239932e-06 0.0000000000000000e+00  6.0366954009016816e-05 8.9768043366467154e-06 0.0000000000000000e+00  6.0309734007835125e-05 9.9350567447364924e-06 0.0000000000000000e+00  6.0258361987530762e-05 1.0955918528177122e-05 0.0000000000000000e+00  6.0227563868808787e-05 1.2057348656169253e-05 0.0000000000000000e+00  6.0254393705716502e-05 1.3272213680415312e-05 0.0000000000000000e+00  2.6273239388974190e-05 1.4670629575164185e-05 0.0000000000000000e+00  3.0416562574307575e-05 -1.8060816964426962e-05 0.0000000000000000e+00  3.0827315135092265e-05 -1.8352634077789531e-05 0.0000000000000000e+00  3.1214850305837788e-05 -1.8619759774018974e-05 0.0000000000000000e+00  3.1588291654803535e-05 -1.8861956712523664e-05 0.0000000000000000e+00  3.1953025916263422e-05 -1.9082728864638909e-05 0.0000000000000000e+00  3.2312187603827924e-05 -1.9285342186980969e-05 0.0000000000000000e+00  3.2667657939876305e-05 -1.9472299848555252e-05 0.0000000000000000e+00  3.3020614816775540e-05 -1.9645455732408834e-05 0.0000000000000000e+00  3.3371826732145338e-05 -1.9806188769067035e-05 0.0000000000000000e+00  3.3721813099740761e-05 -1.9955539333871286e-05 0.0000000000000000e+00  3.4070935023278182e-05 -2.0094304628681670e-05 0.0000000000000000e+00  3.4419448882397341e-05 -2.0223104182148788e-05 0.0000000000000000e+00  3.4767539279431658e-05 -2.0342425282926513e-05 0.0000000000000000e+00  3.5115340061842026e-05 -2.0452655102864981e-05 0.0000000000000000e+00  3.5462948191622434e-05 -2.0554103899117493e-05 0.0000000000000000e+00  3.5810433160560207e-05 -2.0647022119235636e-05 0.0000000000000000e+00  3.6157843559231351e-05 -2.0731613270652538e-05 0.0000000000000000e+00  3.6505211753634637e-05 -2.0808043767139850e-05 0.0000000000000000e+00  3.6852557289079879e-05 -2.0876450591456042e-05 0.0000000000000000e+00  3.7199889409977871e-05 -2.0936947341065881e-05 0.0000000000000000e+00  3.7547208952076749e-05 -2.0989629061940462e-05 0.0000000000000000e+00  3.7894509783531483e-05 -2.1034576155876117e-05 0.0000000000000000e+00  3.8241779919762076e-05 -2.1071857572940722e-05 0.0000000000000000e+00  3.8589002388428328e-05 -2.1101533438927511e-05 0.0000000000000000e+00  3.8936155911523107e-05 -2.1123657236943316e-05 0.0000000000000000e+00  3.9283215448798758e-05 -2.1138277628285351e-05 0.0000000000000000e+00  3.9630152625869108e-05 -2.1145439976000269e-05 0.0000000000000000e+00  3.9976936085928116e-05 -2.1145187631632645e-05 0.0000000000000000e+00  4.0323531766583987e-05 -2.1137563011142113e-05 0.0000000000000000e+00  4.0669903129730844e-05 -2.1122608507728735e-05 0.0000000000000000e+00  4.1016011344374714e-05 -2.1100367252668839e-05 0.0000000000000000e+00  4.1361815440899008e-05 -2.1070883755358594e-05 0.0000000000000000e+00  4.1707272429469811e-05 -2.1034204428671543e-05 0.0000000000000000e+00  4.2052337403564177e-05 -2.0990378022833767e-05 0.0000000000000000e+00  4.2396963622182149e-05 -2.0939455974255949e-05 0.0000000000000000e+00  4.2741102573129464e-05 -2.0881492673319180e-05 0.0000000000000000e+00  4.3084704030083021e-05 -2.0816545669322117e-05 0.0000000000000000e+00  4.3427716093558111e-05 -2.0744675810369095e-05 0.0000000000000000e+00  4.3770085227323730e-05 -2.0665947326969913e-05 0.0000000000000000e+00  4.4111756284825887e-05 -2.0580427865124484e-05 0.0000000000000000e+00  4.4452672528894066e-05 -2.0488188468115176e-05 0.0000000000000000e+00  4.4792775651170125e-05 -2.0389303520329527e-05 0.0000000000000000e+00  4.5132005780545992e-05 -2.0283850641011902e-05 0.0000000000000000e+00  4.5470301494598964e-05 -2.0171910548261174e-05 0.0000000000000000e+00  4.5807599822422773e-05 -2.0053566880839924e-05 0.0000000000000000e+00  4.6143836249901149e-05 -1.9928905990673762e-05 0.0000000000000000e+00  4.6478944719874349e-05 -1.9798016701599863e-05 0.0000000000000000e+00  4.6812857631861604e-05 -1.9660990039582771e-05 0.0000000000000000e+00  4.7145505841061919e-05 -1.9517918935729739e-05 0.0000000000000000e+00  4.7476818655800557e-05 -1.9368897903326854e-05 0.0000000000000000e+00  4.7806723834198372e-05 -1.9214022691560473e-05 0.0000000000000000e+00  4.8135147581507276e-05 -1.9053389917034202e-05 0.0000000000000000e+00  4.8462014546002408e-05 -1.8887096674191639e-05 0.0000000000000000e+00  4.8787247814430224e-05 -1.8715240125866117e-05 0.0000000000000000e+00  4.9110768908899871e-05 -1.8537917080285737e-05 0.0000000000000000e+00  4.9432497785106833e-05 -1.8355223547650290e-05 0.0000000000000000e+00  4.9752352826892832e-05 -1.8167254284273682e-05 0.0000000000000000e+00  5.0070250845357656e-05 -1.7974102323847774e-05 0.0000000000000000e+00  5.0386107075972575e-05 -1.7775858498048080e-05 0.0000000000000000e+00  5.0699835177803187e-05 -1.7572610944927014e-05 0.0000000000000000e+00  5.1011347233953508e-05 -1.7364444609091478e-05 0.0000000000000000e+00  5.1320553749234499e-05 -1.7151440736551393e-05 0.0000000000000000e+00  5.1627363654938030e-05 -1.6933676361241545e-05 0.0000000000000000e+00  5.1931684308392789e-05 -1.6711223787546636e-05 0.0000000000000000e+00  5.2233421497738242e-05 -1.6484150068829528e-05 0.0000000000000000e+00  5.2532479447364722e-05 -1.6252516486181534e-05 0.0000000000000000e+00  5.2828760820577969e-05 -1.6016378021510569e-05 0.0000000000000000e+00  5.3122166731367493e-05 -1.5775782834848151e-05 0.0000000000000000e+00  5.3412596748070307e-05 -1.5530771740990268e-05 0.0000000000000000e+00  5.3699948906582584e-05 -1.5281377686804376e-05 0.0000000000000000e+00  5.3984119722128021e-05 -1.5027625235863873e-05 0.0000000000000000e+00  5.4265004198250644e-05 -1.4769530051195190e-05 0.0000000000000000e+00  5.4542495847242911e-05 -1.4507098388460982e-05 0.0000000000000000e+00  5.4816486701914080e-05 -1.4240326590253538e-05 0.0000000000000000e+00  5.5086867338904888e-05 -1.3969200589047936e-05 0.0000000000000000e+00  5.5353526894896810e-05 -1.3693695413929952e-05 0.0000000000000000e+00  5.5616353092202697e-05 -1.3413774708037618e-05 0.0000000000000000e+00  5.5875232265190089e-05 -1.3129390250055106e-05 0.0000000000000000e+00  5.6130049385538783e-05 -1.2840481483866739e-05 0.0000000000000000e+00  5.6380688095714060e-05 -1.2546975055094389e-05 0.0000000000000000e+00  5.6627030742661955e-05 -1.2248784356516662e-05 0.0000000000000000e+00  5.6868958414946214e-05 -1.1945809077373859e-05 0.0000000000000000e+00  5.7106350985769438e-05 -1.1637934759001212e-05 0.0000000000000000e+00  5.7339087157382007e-05 -1.1325032356956921e-05 0.0000000000000000e+00  5.7567044514705845e-05 -1.1006957807035977e-05 0.0000000000000000e+00  5.7790099580068421e-05 -1.0683551590395801e-05 0.0000000000000000e+00  5.8008127876152393e-05 -1.0354638300902330e-05 0.0000000000000000e+00  5.8221003998604193e-05 -1.0020026213253264e-05 0.0000000000000000e+00  5.8428601692250837e-05 -9.6795068422750319e-06 0.0000000000000000e+00  5.8630793938363457e-05 -9.3328544943926950e-06 0.0000000000000000e+00  5.8827453057852530e-05 -8.9798258099405004e-06 0.0000000000000000e+00  5.9018450820319535e-05 -8.6201592857937381e-06 0.0000000000000000e+00  5.9203658572037909e-05 -8.2535747776280033e-06 0.0000000000000000e+00  5.9382947379532647e-05 -7.8797729698154573e-06 0.0000000000000000e+00  5.9556188198195414e-05 -7.4984348112927535e-06 0.0000000000000000e+00  5.9723252060717158e-05 -7.1092209017464825e-06 0.0000000000000000e+00  5.9884010295399581e-05 -6.7117708206360094e-06 0.0000000000000000e+00  6.0038334785975089e-05 -6.3057023824836245e-06 0.0000000000000000e+00  6.0186098267973887e-05 -5.8906108074754937e-06 0.0000000000000000e+00  6.0327174676862161e-05 -5.4660677768561539e-06 0.0000000000000000e+00  6.0461439563166616e-05 -5.0316203612423699e-06 0.0000000000000000e+00  6.0588770582343035e-05 -4.5867897843169386e-06 0.0000000000000000e+00  6.0709048079102268e-05 -4.1310699885471758e-06 0.0000000000000000e+00  6.0822155793664734e-05 -3.6639259564583138e-06 0.0000000000000000e+00  6.0927981712047274e-05 -3.1847917349586696e-06 0.0000000000000000e+00  6.1026419109530550e-05 -2.6930680906284143e-06 0.0000000000000000e+00  6.1117367827601132e-05 -2.1881197132533892e-06 0.0000000000000000e+00  6.1200735862243505e-05 -1.6692718476374324e-06 0.0000000000000000e+00  6.1276441347735133e-05 -1.1358062202426744e-06 0.0000000000000000e+00  6.1344415070191394e-05 -5.8695607116354687e-07 0.0000000000000000e+00  6.1404603674652947e-05 -2.1900047109113530e-08 0.0000000000000000e+00  6.1456973813822646e-05 5.6024536027043936e-07 0.0000000000000000e+00  6.1501517584161558e-05 1.1604352685989916e-06 0.0000000000000000e+00  6.1538259754190250e-05 1.7797083300408190e-06 0.0000000000000000e+00  6.1567267523710001e-05 2.4192019492108585e-06 0.0000000000000000e+00  6.1588663954392775e-05 3.0801719130280070e-06 0.0000000000000000e+00  6.1602646810876571e-05 3.7640180704512360e-06 0.0000000000000000e+00  6.1609515623006761e-05 4.4723184035588837e-06 0.0000000000000000e+00  6.1609711554722058e-05 5.2068749822331561e-06 0.0000000000000000e+00  6.1603877910321181e-05 5.9697770714572940e-06 0.0000000000000000e+00  6.1592955042266695e-05 6.7634894713730631e-06 0.0000000000000000e+00  6.1578334854872629e-05 7.5909786571015658e-06 0.0000000000000000e+00  6.1562122736780189e-05 8.4558960523617444e-06 0.0000000000000000e+00  6.1547600489930687e-05 9.3628465585027243e-06 0.0000000000000000e+00  6.1540075633415015e-05 1.0317774168155935e-05 0.0000000000000000e+00  6.1548471352534939e-05 1.1328455037040719e-05 0.0000000000000000e+00  6.1588215713004324e-05 1.2404810647237419e-05 0.0000000000000000e+00  6.1685534307298617e-05 1.3557368517047585e-05 0.0000000000000000e+00  2.7655632916179229e-05 1.4785692748708890e-05 0.0000000000000000e+00  3.0388588531142340e-05 -1.8202469707295776e-05 0.0000000000000000e+00  3.0814416150425419e-05 -1.8455878639356271e-05 0.0000000000000000e+00  3.1220772721132078e-05 -1.8697463697980865e-05 0.0000000000000000e+00  3.1613040750177318e-05 -1.8923250964419935e-05 0.0000000000000000e+00  3.1995361510883669e-05 -1.9133008265947993e-05 0.0000000000000000e+00  3.2370635131069581e-05 -1.9327750088837803e-05 0.0000000000000000e+00  3.2740844430466376e-05 -1.9508727048700436e-05 0.0000000000000000e+00  3.3107351146019481e-05 -1.9677090448588785e-05 0.0000000000000000e+00  3.3471105384833000e-05 -1.9833810576797006e-05 0.0000000000000000e+00  3.3832782873222111e-05 -1.9979679484860569e-05 0.0000000000000000e+00  3.4192873246283173e-05 -2.0115336825110575e-05 0.0000000000000000e+00  3.4551737150695372e-05 -2.0241298167578137e-05 0.0000000000000000e+00  3.4909643776726007e-05 -2.0357979791052472e-05 0.0000000000000000e+00  3.5266796019922664e-05 -2.0465718880702255e-05 0.0000000000000000e+00  3.5623347718727327e-05 -2.0564789571242414e-05 0.0000000000000000e+00  3.5979415705100770e-05 -2.0655415608805683e-05 0.0000000000000000e+00  3.6335088398731230e-05 -2.0737780358937030e-05 0.0000000000000000e+00  3.6690432043878785e-05 -2.0812034771777732e-05 0.0000000000000000e+00  3.7045495312720833e-05 -2.0878303763960382e-05 0.0000000000000000e+00  3.7400312753788079e-05 -2.0936691381034933e-05 0.0000000000000000e+00  3.7754907409426330e-05 -2.0987285003437606e-05 0.0000000000000000e+00  3.8109292825022623e-05 -2.1030158803836407e-05 0.0000000000000000e+00  3.8463474611116766e-05 -2.1065376607287689e-