<?xml version="1.0"?>
<VTKFile type="UnstructuredGrid"  version="0.1"  >
<UnstructuredGrid>
<Piece  NumberOfPoints="1089" NumberOfCells="2048">
<Points>
<DataArray  type="Float64"  NumberOfComponents="3"  format="ascii">0 0 0  0.03125 0 0  0.0625 0 0  0.09375 0 0  0.125 0 0  0.15625 0 0  0.1875 0 0  0.21875 0 0  0.25 0 0  0.28125 0 0  0.3125 0 0  0.34375 0 0  0.375 0 0  0.40625 0 0  0.4375 0 0  0.46875 0 0  0.5 0 0  0.53125 0 0  0.5625 0 0  0.59375 0 0  0.625 0 0  0.65625 0 0  0.6875 0 0  0.71875 0 0  0.75 0 0  0.78125 0 0  0.8125 0 0  0.84375 0 0  0.875 0 0  0.90625 0 0  0.9375 0 0  0.96875 0 0  1 0 0  0 0.03125 0  0.03125 0.03125 0  0.0625 0.03125 0  0.09375 0.03125 0  0.125 0.03125 0  0.15625 0.03125 0  0.1875 0.03125 0  0.21875 0.03125 0  0.25 0.03125 0  0.28125 0.03125 0  0.3125 0.03125 0  0.34375 0.03125 0  0.375 0.03125 0  0.40625 0.03125 0  0.4375 0.03125 0  0.46875 0.03125 0  0.5 0.03125 0  0.53125 0.03125 0  0.5625 0.03125 0  0.59375 0.03125 0  0.625 0.03125 0  0.65625 0.03125 0  0.6875 0.03125 0  0.71875 0.03125 0  0.75 0.03125 0  0.78125 0.03125 0  0.8125 0.03125 0  0.84375 0.03125 0  0.875 0.03125 0  0.90625 0.03125 0  0.9375 0.03125 0  0.96875 0.03125 0  1 0.03125 0  0 0.0625 0  0.03125 0.0625 0  0.0625 0.0625 0  0.09375 0.0625 0  0.125 0.0625 0  0.15625 0.0625 0  0.1875 0.0625 0  0.21875 0.0625 0  0.25 0.0625 0  0.28125 0.0625 0  0.3125 0.0625 0  0.34375 0.0625 0  0.375 0.0625 0  0.40625 0.0625 0  0.4375 0.0625 0  0.46875 0.0625 0  0.5 0.0625 0  0.53125 0.0625 0  0.5625 0.0625 0  0.59375 0.0625 0  0.625 0.0625 0  0.65625 0.0625 0  0.6875 0.0625 0  0.71875 0.0625 0  0.75 0.0625 0  0.78125 0.0625 0  0.8125 0.0625 0  0.84375 0.0625 0  0.875 0.0625 0  0.90625 0.0625 0  0.9375 0.0625 0  0.96875 0.0625 0  1 0.0625 0  0 0.09375 0  0.03125 0.09375 0  0.0625 0.09375 0  0.09375 0.09375 0  0.125 0.09375 0  0.15625 0.09375 0  0.1875 0.09375 0  0.21875 0.09375 0  0.25 0.09375 0  0.28125 0.09375 0  0.3125 0.09375 0  0.34375 0.09375 0  0.375 0.09375 0  0.40625 0.09375 0  0.4375 0.09375 0  0.46875 0.09375 0  0.5 0.09375 0  0.53125 0.09375 0  0.5625 0.09375 0  0.59375 0.09375 0  0.625 0.09375 0  0.65625 0.09375 0  0.6875 0.09375 0  0.71875 0.09375 0  0.75 0.09375 0  0.78125 0.09375 0  0.8125 0.09375 0  0.84375 0.09375 0  0.875 0.09375 0  0.90625 0.09375 0  0.9375 0.09375 0  0.96875 0.09375 0  1 0.09375 0  0 0.125 0  0.03125 0.125 0  0.0625 0.125 0  0.09375 0.125 0  0.125 0.125 0  0.15625 0.125 0  0.1875 0.125 0  0.21875 0.125 0  0.25 0.125 0  0.28125 0.125 0  0.3125 0.125 0  0.34375 0.125 0  0.375 0.125 0  0.40625 0.125 0  0.4375 0.125 0  0.46875 0.125 0  0.5 0.125 0  0.53125 0.125 0  0.5625 0.125 0  0.59375 0.125 0  0.625 0.125 0  0.65625 0.125 0  0.6875 0.125 0  0.71875 0.125 0  0.75 0.125 0  0.78125 0.125 0  0.8125 0.125 0  0.84375 0.125 0  0.875 0.125 0  0.90625 0.125 0  0.9375 0.125 0  0.96875 0.125 0  1 0.125 0  0 0.15625 0  0.03125 0.15625 0  0.0625 0.15625 0  0.09375 0.15625 0  0.125 0.15625 0  0.15625 0.15625 0  0.1875 0.15625 0  0.21875 0.15625 0  0.25 0.15625 0  0.28125 0.15625 0  0.3125 0.15625 0  0.34375 0.15625 0  0.375 0.15625 0  0.40625 0.15625 0  0.4375 0.15625 0  0.46875 0.15625 0  0.5 0.15625 0  0.53125 0.15625 0  0.5625 0.15625 0  0.59375 0.15625 0  0.625 0.15625 0  0.65625 0.15625 0  0.6875 0.15625 0  0.71875 0.15625 0  0.75 0.15625 0  0.78125 0.15625 0  0.8125 0.15625 0  0.84375 0.15625 0  0.875 0.15625 0  0.90625 0.15625 0  0.9375 0.15625 0  0.96875 0.15625 0  1 0.15625 0  0 0.1875 0  0.03125 0.1875 0  0.0625 0.1875 0  0.09375 0.1875 0  0.125 0.1875 0  0.15625 0.1875 0  0.1875 0.1875 0  0.21875 0.1875 0  0.25 0.1875 0  0.28125 0.1875 0  0.3125 0.1875 0  0.34375 0.1875 0  0.375 0.1875 0  0.40625 0.1875 0  0.4375 0.1875 0  0.46875 0.1875 0  0.5 0.1875 0  0.53125 0.1875 0  0.5625 0.1875 0  0.59375 0.1875 0  0.625 0.1875 0  0.65625 0.1875 0  0.6875 0.1875 0  0.71875 0.1875 0  0.75 0.1875 0  0.78125 0.1875 0  0.8125 0.1875 0  0.84375 0.1875 0  0.875 0.1875 0  0.90625 0.1875 0  0.9375 0.1875 0  0.96875 0.1875 0  1 0.1875 0  0 0.21875 0  0.03125 0.21875 0  0.0625 0.21875 0  0.09375 0.21875 0  0.125 0.21875 0  0.15625 0.21875 0  0.1875 0.21875 0  0.21875 0.21875 0  0.25 0.21875 0  0.28125 0.21875 0  0.3125 0.21875 0  0.34375 0.21875 0  0.375 0.21875 0  0.40625 0.21875 0  0.4375 0.21875 0  0.46875 0.21875 0  0.5 0.21875 0  0.53125 0.21875 0  0.5625 0.21875 0  0.59375 0.21875 0  0.625 0.21875 0  0.65625 0.21875 0  0.6875 0.21875 0  0.71875 0.21875 0  0.75 0.21875 0  0.78125 0.21875 0  0.8125 0.21875 0  0.84375 0.21875 0  0.875 0.21875 0  0.90625 0.21875 0  0.9375 0.21875 0  0.96875 0.21875 0  1 0.21875 0  0 0.25 0  0.03125 0.25 0  0.0625 0.25 0  0.09375 0.25 0  0.125 0.25 0  0.15625 0.25 0  0.1875 0.25 0  0.21875 0.25 0  0.25 0.25 0  0.28125 0.25 0  0.3125 0.25 0  0.34375 0.25 0  0.375 0.25 0  0.40625 0.25 0  0.4375 0.25 0  0.46875 0.25 0  0.5 0.25 0  0.53125 0.25 0  0.5625 0.25 0  0.59375 0.25 0  0.625 0.25 0  0.65625 0.25 0  0.6875 0.25 0  0.71875 0.25 0  0.75 0.25 0  0.78125 0.25 0  0.8125 0.25 0  0.84375 0.25 0  0.875 0.25 0  0.90625 0.25 0  0.9375 0.25 0  0.96875 0.25 0  1 0.25 0  0 0.28125 0  0.03125 0.28125 0  0.0625 0.28125 0  0.09375 0.28125 0  0.125 0.28125 0  0.15625 0.28125 0  0.1875 0.28125 0  0.21875 0.28125 0  0.25 0.28125 0  0.28125 0.28125 0  0.3125 0.28125 0  0.34375 0.28125 0  0.375 0.28125 0  0.40625 0.28125 0  0.4375 0.28125 0  0.46875 0.28125 0  0.5 0.28125 0  0.53125 0.28125 0  0.5625 0.28125 0  0.59375 0.28125 0  0.625 0.28125 0  0.65625 0.28125 0  0.6875 0.28125 0  0.71875 0.28125 0  0.75 0.28125 0  0.78125 0.28125 0  0.8125 0.28125 0  0.84375 0.28125 0  0.875 0.28125 0  0.90625 0.28125 0  0.9375 0.28125 0  0.96875 0.28125 0  1 0.28125 0  0 0.3125 0  0.03125 0.3125 0  0.0625 0.3125 0  0.09375 0.3125 0  0.125 0.3125 0  0.15625 0.3125 0  0.1875 0.3125 0  0.21875 0.3125 0  0.25 0.3125 0  0.28125 0.3125 0  0.3125 0.3125 0  0.34375 0.3125 0  0.375 0.3125 0  0.40625 0.3125 0  0.4375 0.3125 0  0.46875 0.3125 0  0.5 0.3125 0  0.53125 0.3125 0  0.5625 0.3125 0  0.59375 0.3125 0  0.625 0.3125 0  0.65625 0.3125 0  0.6875 0.3125 0  0.71875 0.3125 0  0.75 0.3125 0  0.78125 0.3125 0  0.8125 0.3125 0  0.84375 0.3125 0  0.875 0.3125 0  0.90625 0.3125 0  0.9375 0.3125 0  0.96875 0.3125 0  1 0.3125 0  0 0.34375 0  0.03125 0.34375 0  0.0625 0.34375 0  0.09375 0.34375 0  0.125 0.34375 0  0.15625 0.34375 0  0.1875 0.34375 0  0.21875 0.34375 0  0.25 0.34375 0  0.28125 0.34375 0  0.3125 0.34375 0  0.34375 0.34375 0  0.375 0.34375 0  0.40625 0.34375 0  0.4375 0.34375 0  0.46875 0.34375 0  0.5 0.34375 0  0.53125 0.34375 0  0.5625 0.34375 0  0.59375 0.34375 0  0.625 0.34375 0  0.65625 0.34375 0  0.6875 0.34375 0  0.71875 0.34375 0  0.75 0.34375 0  0.78125 0.34375 0  0.8125 0.34375 0  0.84375 0.34375 0  0.875 0.34375 0  0.90625 0.34375 0  0.9375 0.34375 0  0.96875 0.34375 0  1 0.34375 0  0 0.375 0  0.03125 0.375 0  0.0625 0.375 0  0.09375 0.375 0  0.125 0.375 0  0.15625 0.375 0  0.1875 0.375 0  0.21875 0.375 0  0.25 0.375 0  0.28125 0.375 0  0.3125 0.375 0  0.34375 0.375 0  0.375 0.375 0  0.40625 0.375 0  0.4375 0.375 0  0.46875 0.375 0  0.5 0.375 0  0.53125 0.375 0  0.5625 0.375 0  0.59375 0.375 0  0.625 0.375 0  0.65625 0.375 0  0.6875 0.375 0  0.71875 0.375 0  0.75 0.375 0  0.78125 0.375 0  0.8125 0.375 0  0.84375 0.375 0  0.875 0.375 0  0.90625 0.375 0  0.9375 0.375 0  0.96875 0.375 0  1 0.375 0  0 0.40625 0  0.03125 0.40625 0  0.0625 0.40625 0  0.09375 0.40625 0  0.125 0.40625 0  0.15625 0.40625 0  0.1875 0.40625 0  0.21875 0.40625 0  0.25 0.40625 0  0.28125 0.40625 0  0.3125 0.40625 0  0.34375 0.40625 0  0.375 0.40625 0  0.40625 0.40625 0  0.4375 0.40625 0  0.46875 0.40625 0  0.5 0.40625 0  0.53125 0.40625 0  0.5625 0.40625 0  0.59375 0.40625 0  0.625 0.40625 0  0.65625 0.40625 0  0.6875 0.40625 0  0.71875 0.40625 0  0.75 0.40625 0  0.78125 0.40625 0  0.8125 0.40625 0  0.84375 0.40625 0  0.875 0.40625 0  0.90625 0.40625 0  0.9375 0.40625 0  0.96875 0.40625 0  1 0.40625 0  0 0.4375 0  0.03125 0.4375 0  0.0625 0.4375 0  0.09375 0.4375 0  0.125 0.4375 0  0.15625 0.4375 0  0.1875 0.4375 0  0.21875 0.4375 0  0.25 0.4375 0  0.28125 0.4375 0  0.3125 0.4375 0  0.34375 0.4375 0  0.375 0.4375 0  0.40625 0.4375 0  0.4375 0.4375 0  0.46875 0.4375 0  0.5 0.4375 0  0.53125 0.4375 0  0.5625 0.4375 0  0.59375 0.4375 0  0.625 0.4375 0  0.65625 0.4375 0  0.6875 0.4375 0  0.71875 0.4375 0  0.75 0.4375 0  0.78125 0.4375 0  0.8125 0.4375 0  0.84375 0.4375 0  0.875 0.4375 0  0.90625 0.4375 0  0.9375 0.4375 0  0.96875 0.4375 0  1 0.4375 0  0 0.46875 0  0.03125 0.46875 0  0.0625 0.46875 0  0.09375 0.46875 0  0.125 0.46875 0  0.15625 0.46875 0  0.1875 0.46875 0  0.21875 0.46875 0  0.25 0.46875 0  0.28125 0.46875 0  0.3125 0.46875 0  0.34375 0.46875 0  0.375 0.46875 0  0.40625 0.46875 0  0.4375 0.46875 0  0.46875 0.46875 0  0.5 0.46875 0  0.53125 0.46875 0  0.5625 0.46875 0  0.59375 0.46875 0  0.625 0.46875 0  0.65625 0.46875 0  0.6875 0.46875 0  0.71875 0.46875 0  0.75 0.46875 0  0.78125 0.46875 0  0.8125 0.46875 0  0.84375 0.46875 0  0.875 0.46875 0  0.90625 0.46875 0  0.9375 0.46875 0  0.96875 0.46875 0  1 0.46875 0  0 0.5 0  0.03125 0.5 0  0.0625 0.5 0  0.09375 0.5 0  0.125 0.5 0  0.15625 0.5 0  0.1875 0.5 0  0.21875 0.5 0  0.25 0.5 0  0.28125 0.5 0  0.3125 0.5 0  0.34375 0.5 0  0.375 0.5 0  0.40625 0.5 0  0.4375 0.5 0  0.46875 0.5 0  0.5 0.5 0  0.53125 0.5 0  0.5625 0.5 0  0.59375 0.5 0  0.625 0.5 0  0.65625 0.5 0  0.6875 0.5 0  0.71875 0.5 0  0.75 0.5 0  0.78125 0.5 0  0.8125 0.5 0  0.84375 0.5 0  0.875 0.5 0  0.90625 0.5 0  0.9375 0.5 0  0.96875 0.5 0  1 0.5 0  0 0.53125 0  0.03125 0.53125 0  0.0625 0.53125 0  0.09375 0.53125 0  0.125 0.53125 0  0.15625 0.53125 0  0.1875 0.53125 0  0.21875 0.53125 0  0.25 0.53125 0  0.28125 0.53125 0  0.3125 0.53125 0  0.34375 0.53125 0  0.375 0.53125 0  0.40625 0.53125 0  0.4375 0.53125 0  0.46875 0.53125 0  0.5 0.53125 0  0.53125 0.53125 0  0.5625 0.53125 0  0.59375 0.53125 0  0.625 0.53125 0  0.65625 0.53125 0  0.6875 0.53125 0  0.71875 0.53125 0  0.75 0.53125 0  0.78125 0.531
[...]
<PointData  Vectors="f_907"> 
<DataArray  type="Float64"  Name="f_907"  NumberOfComponents="3" format="ascii">1.8516482781689644e-04 0.0000000000000000e+00 0.0000000000000000e+00  2.0115860921698231e-04 -3.0503226973177533e-05 0.0000000000000000e+00  2.1597271696127684e-04 -5.7027171621815143e-05 0.0000000000000000e+00  2.3039978550637441e-04 -8.0899841264248096e-05 0.0000000000000000e+00  2.4473809513411715e-04 -1.0264915748592340e-04 0.0000000000000000e+00  2.5910729039815839e-04 -1.2249900709915273e-04 0.0000000000000000e+00  2.7355282585700413e-04 -1.4054894780513028e-04 0.0000000000000000e+00  2.8808481631309446e-04 -1.5684860584785909e-04 0.0000000000000000e+00  3.0269430790230700e-04 -1.7143217952764189e-04 0.0000000000000000e+00  3.1736090260542360e-04 -1.8433548514029674e-04 0.0000000000000000e+00  3.3205671768937739e-04 -1.9560410888197488e-04 0.0000000000000000e+00  3.4674863839390113e-04 -2.0529630661425546e-04 0.0000000000000000e+00  3.6139970178550307e-04 -2.1348239539076275e-04 0.0000000000000000e+00  3.7596999756772664e-04 -2.2024160063072173e-04 0.0000000000000000e+00  3.9041727550226391e-04 -2.2565698983012528e-04 0.0000000000000000e+00  4.0469735982273658e-04 -2.2980897935520606e-04 0.0000000000000000e+00  4.1876443009525310e-04 -2.3276783635317599e-04 0.0000000000000000e+00  4.3257121151341060e-04 -2.3458556335465008e-04 0.0000000000000000e+00  4.4606911508215941e-04 -2.3528752332091507e-04 0.0000000000000000e+00  4.5920837630358813e-04 -2.3486412365075759e-04 0.0000000000000000e+00  4.7193826054831023e-04 -2.3326281885754918e-04 0.0000000000000000e+00  4.8420743994631588e-04 -2.3038060325980547e-04 0.0000000000000000e+00  4.9596471335866532e-04 -2.2605703246791897e-04 0.0000000000000000e+00  5.0716036836476186e-04 -2.2006760921780555e-04 0.0000000000000000e+00  5.1774873902857288e-04 -2.1211703982873531e-04 0.0000000000000000e+00  5.2769305921633591e-04 -2.0183129281152457e-04 0.0000000000000000e+00  5.3697496572903403e-04 -1.8874629059086045e-04 0.0000000000000000e+00  5.4561412719131286e-04 -1.7228875661398635e-04 0.0000000000000000e+00  5.5371197492232183e-04 -1.5173938737239601e-04 0.0000000000000000e+00  5.6155870734730939e-04 -1.2615479147903841e-04 0.0000000000000000e+00  5.6992492662621963e-04 -9.4186316263789038e-05 0.0000000000000000e+00  5.8095206321573389e-04 -5.3614037321403352e-05 0.0000000000000000e+00  0.0000000000000000e+00 0.0000000000000000e+00 0.0000000000000000e+00  1.7208424909214912e-04 0.0000000000000000e+00 0.0000000000000000e+00  1.9034338979070226e-04 -2.6283380652136756e-05 0.0000000000000000e+00  2.0744035978528808e-04 -5.0951462470472109e-05 0.0000000000000000e+00  2.2391704948249158e-04 -7.3779261114959027e-05 0.0000000000000000e+00  2.4008223421201347e-04 -9.4806712048534081e-05 0.0000000000000000e+00  2.5610493729569250e-04 -1.1408514147315252e-04 0.0000000000000000e+00  2.7207703174197961e-04 -1.3164535776111208e-04 0.0000000000000000e+00  2.8804725214548466e-04 -1.4750627072279698e-04 0.0000000000000000e+00  3.0403895567820971e-04 -1.6168666543148191e-04 0.0000000000000000e+00  3.2005944635415950e-04 -1.7421351245006100e-04 0.0000000000000000e+00  3.3610496172081783e-04 -1.8512643126777917e-04 0.0000000000000000e+00  3.5216339737631497e-04 -1.9447892546631262e-04 0.0000000000000000e+00  3.6821583811352809e-04 -2.0233701097971402e-04 0.0000000000000000e+00  3.8423746802351832e-04 -2.0877574405586685e-04 0.0000000000000000e+00  4.0019818181336042e-04 -2.1387407579953610e-04 0.0000000000000000e+00  4.1606309021313681e-04 -2.1770842039858795e-04 0.0000000000000000e+00  4.3179304383278438e-04 -2.2034530639647443e-04 0.0000000000000000e+00  4.4734526485290527e-04 -2.2183346901927248e-04 0.0000000000000000e+00  4.6267416150014284e-04 -2.2219572544535104e-04 0.0000000000000000e+00  4.7773240310100551e-04 -2.2142094673205381e-04 0.0000000000000000e+00  4.9247235500160524e-04 -2.1945639390097416e-04 0.0000000000000000e+00  5.0684802188599720e-04 -2.1620061660893031e-04 0.0000000000000000e+00  5.2081774362894295e-04 -2.1149701416073308e-04 0.0000000000000000e+00  5.3434806869734341e-04 -2.0512802028893606e-04 0.0000000000000000e+00  5.4741957506367067e-04 -1.9680967925485293e-04 0.0000000000000000e+00  5.6003608223802355e-04 -1.8618610717151436e-04 0.0000000000000000e+00  5.7224004718131605e-04 -1.7282295958281901e-04 0.0000000000000000e+00  5.8413968374607106e-04 -1.5619861673024649e-04 0.0000000000000000e+00  5.9595885815610927e-04 -1.3569186329687177e-04 0.0000000000000000e+00  6.0813087242184150e-04 -1.1056807371534472e-04 0.0000000000000000e+00  6.2146880912761215e-04 -7.9984764384533058e-05 0.0000000000000000e+00  6.3741262277261512e-04 -4.3126816122729394e-05 0.0000000000000000e+00  5.2746245741808195e-05 0.0000000000000000e+00 0.0000000000000000e+00  1.6193866301485865e-04 0.0000000000000000e+00 0.0000000000000000e+00  1.8167967844812810e-04 -2.3655847003478669e-05 0.0000000000000000e+00  2.0052548037201301e-04 -4.6481653472429940e-05 0.0000000000000000e+00  2.1876668250586651e-04 -6.8026854084024535e-05 0.0000000000000000e+00  2.3662533053592227e-04 -8.8103866503264072e-05 0.0000000000000000e+00  2.5425257167457915e-04 -1.0662978294040393e-04 0.0000000000000000e+00  2.7174738872681736e-04 -1.2356333343999104e-04 0.0000000000000000e+00  2.8917373371467603e-04 -1.3888473764467335e-04 0.0000000000000000e+00  3.0657225262892274e-04 -1.5259108429654944e-04 0.0000000000000000e+00  3.2396751692076453e-04 -1.6469612457348237e-04 0.0000000000000000e+00  3.4137226157832101e-04 -1.7523037311972800e-04 0.0000000000000000e+00  3.5878978982395449e-04 -1.8424011179885014e-04 0.0000000000000000e+00  3.7621531880371872e-04 -1.9178490893800859e-04 0.0000000000000000e+00  3.9363676417314419e-04 -1.9793365954812181e-04 0.0000000000000000e+00  4.1103528609143236e-04 -2.0275931695157290e-04 0.0000000000000000e+00  4.2838581170701051e-04 -2.0633256500823816e-04 0.0000000000000000e+00  4.4565768409365880e-04 -2.0871472205852282e-04 0.0000000000000000e+00  4.6281554995819540e-04 -2.0995018866476478e-04 0.0000000000000000e+00  4.7982057911233333e-04 -2.1005875558377518e-04 0.0000000000000000e+00  4.9663210745187758e-04 -2.0902807748723884e-04 0.0000000000000000e+00  5.1320981156832701e-04 -2.0680659144201030e-04 0.0000000000000000e+00  5.2951656739019803e-04 -2.0329711958155805e-04 0.0000000000000000e+00  5.4552222926484983e-04 -1.9835134543566557e-04 0.0000000000000000e+00  5.6120871706163977e-04 -1.9176530386097457e-04 0.0000000000000000e+00  5.7657705862503017e-04 -1.8327599897506597e-04 0.0000000000000000e+00  5.9165746876374374e-04 -1.7255932528911604e-04 0.0000000000000000e+00  6.0652422884767410e-04 -1.5922977685457751e-04 0.0000000000000000e+00  6.2131804783580047e-04 -1.4284342119583182e-04 0.0000000000000000e+00  6.3627920225733936e-04 -1.2290845552648255e-04 0.0000000000000000e+00  6.5179246639396338e-04 -9.8915402352239834e-05 0.0000000000000000e+00  6.6842993869686840e-04 -7.0418977555886109e-05 0.0000000000000000e+00  6.8692266011427527e-04 -3.7249602518274472e-05 0.0000000000000000e+00  9.3675669822657071e-05 0.0000000000000000e+00 0.0000000000000000e+00  1.5411285046604967e-04 0.0000000000000000e+00 0.0000000000000000e+00  1.7503786542683725e-04 -2.1799998044080837e-05 0.0000000000000000e+00  1.9532061810945134e-04 -4.3043972640210981e-05 0.0000000000000000e+00  2.1509624036955555e-04 -6.3315528551655120e-05 0.0000000000000000e+00  2.3449962894420140e-04 -8.2363645490302062e-05 0.0000000000000000e+00  2.5364199187122294e-04 -1.0003962816074186e-04 0.0000000000000000e+00  2.7260844710180754e-04 -1.1625483490118604e-04 0.0000000000000000e+00  2.9146229145626812e-04 -1.3095876696023190e-04 0.0000000000000000e+00  3.1024997655471065e-04 -1.4412890832815606e-04 0.0000000000000000e+00  3.2900497262783324e-04 -1.5576595362420953e-04 0.0000000000000000e+00  3.4775031885952989e-04 -1.6589089062168938e-04 0.0000000000000000e+00  3.6650014201766723e-04 -1.7454219419776873e-04 0.0000000000000000e+00  3.8526050078746543e-04 -1.8177235566219085e-04 0.0000000000000000e+00  4.0402986708487632e-04 -1.8764347261512881e-04 0.0000000000000000e+00  4.2279948921541965e-04 -1.9222188863698975e-04 0.0000000000000000e+00  4.4155382363497697e-04 -1.9557201735198593e-04 0.0000000000000000e+00  4.6027117837676990e-04 -1.9774956869234028e-04 0.0000000000000000e+00  4.7892468055321658e-04 -1.9879444214954134e-04 0.0000000000000000e+00  4.9748366154644952e-04 -1.9872357521710793e-04 0.0000000000000000e+00  5.1591554661423178e-04 -1.9752404077910679e-04 0.0000000000000000e+00  5.3418834203700083e-04 -1.9514668104358979e-04 0.0000000000000000e+00  5.5227383689998577e-04 -1.9150055297117996e-04 0.0000000000000000e+00  5.7015168239399339e-04 -1.8644845291665435e-04 0.0000000000000000e+00  5.8781458570408840e-04 -1.7980380663448758e-04 0.0000000000000000e+00  6.0527495683666832e-04 -1.7132929605730152e-04 0.0000000000000000e+00  6.2257345157531660e-04 -1.6073782983946558e-04 0.0000000000000000e+00  6.3978986011557770e-04 -1.4769702095994430e-04 0.0000000000000000e+00  6.5705637939961203e-04 -1.3183955266049541e-04 0.0000000000000000e+00  6.7457160549816431e-04 -1.1278432755551515e-04 0.0000000000000000e+00  6.9260849516783463e-04 -9.0178032650878315e-05 0.0000000000000000e+00  7.1149692266048170e-04 -6.3774094690716154e-05 0.0000000000000000e+00  7.3153751328869365e-04 -3.3570485791778459e-05 0.0000000000000000e+00  1.2712824726190952e-04 0.0000000000000000e+00 0.0000000000000000e+00  1.4828572671698320e-04 0.0000000000000000e+00 0.0000000000000000e+00  1.7026797240832919e-04 -2.0381729555651873e-05 0.0000000000000000e+00  1.9180755798704763e-04 -4.0288641766972333e-05 0.0000000000000000e+00  2.1294972541410773e-04 -5.9375890019808253e-05 0.0000000000000000e+00  2.3376373425598729e-04 -7.7397079611518649e-05 0.0000000000000000e+00  2.5432090515190020e-04 -9.4184670422547967e-05 0.0000000000000000e+00  2.7468545062975247e-04 -1.0962852199591921e-04 0.0000000000000000e+00  2.9491197542586001e-04 -1.2366052395695881e-04 0.0000000000000000e+00  3.1504565829332254e-04 -1.3624503122500187e-04 0.0000000000000000e+00  3.3512310854239002e-04 -1.4737291685729126e-04 0.0000000000000000e+00  3.5517310913968370e-04 -1.5705731912252219e-04 0.0000000000000000e+00  3.7521704888587859e-04 -1.6532982366690430e-04 0.0000000000000000e+00  3.9526909518916575e-04 -1.7223637754881782e-04 0.0000000000000000e+00  4.1533624311940187e-04 -1.7783261050285937e-04 0.0000000000000000e+00  4.3541839058092169e-04 -1.8217848102741740e-04 0.0000000000000000e+00  4.5550857719289795e-04 -1.8533231779427339e-04 0.0000000000000000e+00  4.7559350396586542e-04 -1.8734442288781405e-04 0.0000000000000000e+00  4.9565443082599803e-04 -1.8825046309778326e-04 0.0000000000000000e+00  5.1566853193829587e-04 -1.8806491012002269e-04 0.0000000000000000e+00  5.3561077608743624e-04 -1.8677480803841462e-04 0.0000000000000000e+00  5.5545639317927664e-04 -1.8433415407875797e-04 0.0000000000000000e+00  5.7518398587796948e-04 -1.8065918349707832e-04 0.0000000000000000e+00  5.9477934696189338e-04 -1.7562486563177382e-04 0.0000000000000000e+00  6.1424003751828216e-04 -1.6906296470095561e-04 0.0000000000000000e+00  6.3358074410670151e-04 -1.6076213185091393e-04 0.0000000000000000e+00  6.5283930390614558e-04 -1.5047073199492972e-04 0.0000000000000000e+00  6.7208293025741717e-04 -1.3790356232776246e-04 0.0000000000000000e+00  6.9141330285685254e-04 -1.2275440810441407e-04 0.0000000000000000e+00  7.1096728368574835e-04 -1.0471757994995334e-04 0.0000000000000000e+00  7.3090633027333984e-04 -8.3522882984909952e-05 0.0000000000000000e+00  7.5138172341138176e-04 -5.8988236650514558e-05 0.0000000000000000e+00  7.7245763451450067e-04 -3.1086887612774561e-05 0.0000000000000000e+00  1.5522208644069835e-04 0.0000000000000000e+00 0.0000000000000000e+00  1.4426376400231491e-04 0.0000000000000000e+00 0.0000000000000000e+00  1.6724440932373158e-04 -1.9239118183689286e-05 0.0000000000000000e+00  1.8993221527294213e-04 -3.7999341707672940e-05 0.0000000000000000e+00  2.1232008427146676e-04 -5.6003039472063421e-05 0.0000000000000000e+00  2.3443222731012181e-04 -7.3032534799954973e-05 0.0000000000000000e+00  2.5630758713129920e-04 -8.8927024055607262e-05 0.0000000000000000e+00  2.7798994517080899e-04 -1.0357371192637466e-04 0.0000000000000000e+00  2.9952272046723794e-04 -1.1689901592593088e-04 0.0000000000000000e+00  3.2094644605551448e-04 -1.2886159288227894e-04 0.0000000000000000e+00  3.4229751660197483e-04 -1.3944701642287782e-04 0.0000000000000000e+00  3.6360744094598996e-04 -1.4866339480712476e-04 0.0000000000000000e+00  3.8490225736376171e-04 -1.5653726209463592e-04 0.0000000000000000e+00  4.0620201245333831e-04 -1.6310928581431128e-04 0.0000000000000000e+00  4.2752032555959385e-04 -1.6842954749962669e-04 0.0000000000000000e+00  4.4886411287137218e-04 -1.7255232332413772e-04 0.0000000000000000e+00  4.7023356039876951e-04 -1.7553041707440986e-04 0.0000000000000000e+00  4.9162243188316523e-04 -1.7740918539987938e-04 0.0000000000000000e+00  5.1301878588883021e-04 -1.7822045400794906e-04 0.0000000000000000e+00  5.3440616025912657e-04 -1.7797656089213465e-04 0.0000000000000000e+00  5.5576526493927858e-04 -1.7666478517619488e-04 0.0000000000000000e+00  5.7707620474090060e-04 -1.7424243268193695e-04 0.0000000000000000e+00  5.9832123021352768e-04 -1.7063286069707306e-04 0.0000000000000000e+00  6.1948798034372476e-04 -1.6572274276238641e-04 0.0000000000000000e+00  6.4057312025039836e-04 -1.5936091445750700e-04 0.0000000000000000e+00  6.6158616153721983e-04 -1.5135922184550399e-04 0.0000000000000000e+00  6.8255302584938581e-04 -1.4149593725718522e-04 0.0000000000000000e+00  7.0351847954112923e-04 -1.2952252844249112e-04 0.0000000000000000e+00  7.2454577754829663e-04 -1.1517483690445807e-04 0.0000000000000000e+00  7.4571054852168306e-04 -9.8189874292775592e-05 0.0000000000000000e+00  7.6708412374337787e-04 -7.8328936238158953e-05 0.0000000000000000e+00  7.8869975537754211e-04 -5.5405302471611684e-05 0.0000000000000000e+00  8.1049654892306755e-04 -2.9307977922554684e-05 0.0000000000000000e+00  1.7919624440732029e-04 0.0000000000000000e+00 0.0000000000000000e+00  1.4191676860409938e-04 0.0000000000000000e+00 0.0000000000000000e+00  1.6586725569972538e-04 -1.8279384965458334e-05 0.0000000000000000e+00  1.8963395413966466e-04 -3.6032878685920977e-05 0.0000000000000000e+00  2.1317909198434459e-04 -5.3041095290584650e-05 0.0000000000000000e+00  2.3649743719234007e-04 -6.9122273794297584e-05 0.0000000000000000e+00  2.5960424802748405e-04 -8.4134912365474435e-05 0.0000000000000000e+00  2.8252653411420248e-04 -9.7975414615536494e-05 0.0000000000000000e+00  3.0529721283106825e-04 -1.1057392012192580e-04 0.0000000000000000e+00  3.2795133099577933e-04 -1.2188993928274883e-04 0.0000000000000000e+00  3.5052354649739437e-04 -1.3190826683318058e-04 0.0000000000000000e+00  3.7304632185453102e-04 -1.4063509717110456e-04 0.0000000000000000e+00  3.9554851887724229e-04 -1.4809410105987020e-04 0.0000000000000000e+00  4.1805425794294582e-04 -1.5432224754241552e-04 0.0000000000000000e+00  4.4058201180507961e-04 -1.5936524564275079e-04 0.0000000000000000e+00  4.6314396209057307e-04 -1.6327258095716335e-04 0.0000000000000000e+00  4.8574567174219929e-04 -1.6609220953744952e-04 0.0000000000000000e+00  5.0838613168557867e-04 -1.6786503980037448e-04 0.0000000000000000e+00  5.3105823226762272e-04 -1.6861938264745024e-04 0.0000000000000000e+00  5.5374969490662451e-04 -1.6836558353738873e-04 0.0000000000000000e+00  5.7644447715021752e-04 -1.6709107011914082e-04 0.0000000000000000e+00  5.9912463656175419e-04 -1.6475606066990167e-04 0.0000000000000000e+00  6.2177260082407759e-04 -1.6129018515187443e-04 0.0000000000000000e+00  6.4437373670250819e-04 -1.5659027827313876e-04 0.0000000000000000e+00  6.6691902553692173e-04 -1.5051961813403181e-04 0.0000000000000000e+00  6.8940751543275502e-04 -1.4290890849197324e-04 0.0000000000000000e+00  7.1184799512879343e-04 -1.3355933375047008e-04 0.0000000000000000e+00  7.3425897817160080e-04 -1.2224802737149931e-04 0.0000000000000000e+00  7.5666555710646177e-04 -1.0873620781221005e-04 0.0000000000000000e+00  7.7909100821932364e-04 -9.2779863532010953e-05 0.0000000000000000e+00  8.0154042323343777e-04 -7.4141830749163695e-05 0.0000000000000000e+00  8.2397364934494455e-04 -5.2601838368415699e-05 0.0000000000000000e+00  8.4626738258608558e-04 -2.7956952590391104e-05 0.0000000000000000e+00  1.9988710045337754e-04 0.0000000000000000e+00 0.0000000000000000e+00  1.4115085368851532e-04 0.0000000000000000e+00 0.0000000000000000e+00  1.6605773325115147e-04 -1.7441291485065236e-05 0.0000000000000000e+00  1.9085688425587999e-04 -3.4286852581777438e-05 0.0000000000000000e+00  2.1549328682970992e-04 -5.0368294366442967e-05 0.0000000000000000e+00  2.3994359373663565e-04 -6.5540949285125549e-05 0.0000000000000000e+00  2.6420719144948368e-04 -7.9688308854519718e-05 0.0000000000000000e+00  2.8829889144676990e-04 -9.2722825328017677e-05 0.0000000000000000e+00  3.1224329901757830e-04 -1.0458459681883525e-04 0.0000000000000000e+00  3.3607060658052967e-04 -1.1523901769638911e-04 0.0000000000000000e+00  3.5981341290208801e-04 -1.2467393215009892e-04 0.0000000000000000e+00  3.8350423970423542e-04 -1.3289646402236954e-04 0.0000000000000000e+00  4.0717352590735612e-04 -1.3992952253572000e-04 0.0000000000000000e+00  4.3084798467141194e-04 -1.4580793943341774e-04 0.0000000000000000e+00  4.5454928341925882e-04 -1.5057421643038804e-04 0.0000000000000000e+00  4.7829305525626253e-04 -1.5427391213762576e-04 0.0000000000000000e+00  5.0208827321651661e-04 -1.5695075133370651e-04 0.0000000000000000e+00  5.2593702498027195e-04 -1.5864158694645081e-04 0.0000000000000000e+00  5.4983471886316249e-04 -1.5937138162980258e-04 0.0000000000000000e+00  5.7377073560715974e-04 -1.5914840058772750e-04 0.0000000000000000e+00  5.9772951600078894e-04 -1.5795982160871080e-04 0.0000000000000000e+00  6.2169204132356271e-04 -1.5576797267580211e-04 0.0000000000000000e+00  6.4563761995306557e-04 -1.5250740488603753e-04 0.0000000000000000e+00  6.6954583264111633e-04 -1.4808299890711751e-04 0.0000000000000000e+00  6.9339840415824638e-04 -1.4236928729269294e-04 0.0000000000000000e+00  7.1718064592443675e-04 -1.3521114624640007e-04 0.0000000000000000e+00  7.4088193994768098e-04 -1.2642595395859907e-04 0.0000000000000000e+00  7.6449450005382225e-04 -1.1580719141583706e-04 0.0000000000000000e+00  7.8800936583728332e-04 -1.0312920266325465e-04 0.0000000000000000e+00  8.1140833541604174e-04 -8.8152309948741348e-05 0.0000000000000000e+00  8.3465053858089444e-04 -7.0626506151305612e-05 0.0000000000000000e+00  8.5765284651839746e-04 -5.0290394151164541e-05 0.0000000000000000e+00  8.8026556001141731e-04 -2.6859903846987443e-05 0.0000000000000000e+00  2.1791867793807818e-04 0.0000000000000000e+00 0.0000000000000000e+00  1.4189634832684553e-04 0.0000000000000000e+00 0.0000000000000000e+00  1.6775469193539005e-04 -1.6679970250343956e-05 0.0000000000000000e+00  1.9355445163354856e-04 -3.2683116043097371e-05 0.0000000000000000e+00  2.1923246622329584e-04 -4.7886729401369621e-05 0.0000000000000000e+00  2.4475561572712135e-04 -6.2182338038452301e-05 0.0000000000000000e+00  2.7011392007753043e-04 -7.5480626497981262e-05 0.0000000000000000e+00  2.9531445850355942e-04 -8.7713726809601766e-05 0.0000000000000000e+00  3.2037622008640465e-04 -9.8835562339250060e-05 0.0000000000000000e+00  3.4532587702501560e-04 -1.0882089105734849e-04 0.0000000000000000e+00  3.7019431508367173e-04 -1.1766348000019633e-04 0.0000000000000000e+00  3.9501375579420461e-04 -1.2537364585041288e-04 0.0000000000000000e+00  4.1981534335044923e-04 -1.3197527249486640e-04 0.0000000000000000e+00  4.4462712366477586e-04 -1.3750236320841935e-04 0.0000000000000000e+00  4.6947238926164925e-04 -1.4199518020663326e-04 0.0000000000000000e+00  4.9436839528393950e-04 -1.4549604400315719e-04 0.0000000000000000e+00  5.1932546858202144e-04 -1.4804489508568608e-04 0.0000000000000000e+00  5.4434653419443979e-04 -1.4