<?xml version="1.0"?>
<VTKFile type="UnstructuredGrid"  version="0.1"  >
<UnstructuredGrid>
<Piece  NumberOfPoints="729" NumberOfCells="3072">
<Points>
<DataArray  type="Float64"  NumberOfComponents="3"  format="ascii">0 0 0  0.125 0 0  0.25 0 0  0.375 0 0  0.5 0 0  0.625 0 0  0.75 0 0  0.875 0 0  1 0 0  0 0.125 0  0.125 0.125 0  0.25 0.125 0  0.375 0.125 0  0.5 0.125 0  0.625 0.125 0  0.75 0.125 0  0.875 0.125 0  1 0.125 0  0 0.25 0  0.125 0.25 0  0.25 0.25 0  0.375 0.25 0  0.5 0.25 0  0.625 0.25 0  0.75 0.25 0  0.875 0.25 0  1 0.25 0  0 0.375 0  0.125 0.375 0  0.25 0.375 0  0.375 0.375 0  0.5 0.375 0  0.625 0.375 0  0.75 0.375 0  0.875 0.375 0  1 0.375 0  0 0.5 0  0.125 0.5 0  0.25 0.5 0  0.375 0.5 0  0.5 0.5 0  0.625 0.5 0  0.75 0.5 0  0.875 0.5 0  1 0.5 0  0 0.625 0  0.125 0.625 0  0.25 0.625 0  0.375 0.625 0  0.5 0.625 0  0.625 0.625 0  0.75 0.625 0  0.875 0.625 0  1 0.625 0  0 0.75 0  0.125 0.75 0  0.25 0.75 0  0.375 0.75 0  0.5 0.75 0  0.625 0.75 0  0.75 0.75 0  0.875 0.75 0  1 0.75 0  0 0.875 0  0.125 0.875 0  0.25 0.875 0  0.375 0.875 0  0.5 0.875 0  0.625 0.875 0  0.75 0.875 0  0.875 0.875 0  1 0.875 0  0 1 0  0.125 1 0  0.25 1 0  0.375 1 0  0.5 1 0  0.625 1 0  0.75 1 0  0.875 1 0  1 1 0  0 0 0.125  0.125 0 0.125  0.25 0 0.125  0.375 0 0.125  0.5 0 0.125  0.625 0 0.125  0.75 0 0.125  0.875 0 0.125  1 0 0.125  0 0.125 0.125  0.125 0.125 0.125  0.25 0.125 0.125  0.375 0.125 0.125  0.5 0.125 0.125  0.625 0.125 0.125  0.75 0.125 0.125  0.875 0.125 0.125  1 0.125 0.125  0 0.25 0.125  0.125 0.25 0.125  0.25 0.25 0.125  0.375 0.25 0.125  0.5 0.25 0.125  0.625 0.25 0.125  0.75 0.25 0.125  0.875 0.25 0.125  1 0.25 0.125  0 0.375 0.125  0.125 0.375 0.125  0.25 0.375 0.125  0.375 0.375 0.125  0.5 0.375 0.125  0.625 0.375 0.125  0.75 0.375 0.125  0.875 0.375 0.125  1 0.375 0.125  0 0.5 0.125  0.125 0.5 0.125  0.25 0.5 0.125  0.375 0.5 0.125  0.5 0.5 0.125  0.625 0.5 0.125  0.75 0.5 0.125  0.875 0.5 0.125  1 0.5 0.125  0 0.625 0.125  0.125 0.625 0.125  0.25 0.625 0.125  0.375 0.625 0.125  0.5 0.625 0.125  0.625 0.625 0.125  0.75 0.625 0.125  0.875 0.625 0.125  1 0.625 0.125  0 0.75 0.125  0.125 0.75 0.125  0.25 0.75 0.125  0.375 0.75 0.125  0.5 0.75 0.125  0.625 0.75 0.125  0.75 0.75 0.125  0.875 0.75 0.125  1 0.75 0.125  0 0.875 0.125  0.125 0.875 0.125  0.25 0.875 0.125  0.375 0.875 0.125  0.5 0.875 0.125  0.625 0.875 0.125  0.75 0.875 0.125  0.875 0.875 0.125  1 0.875 0.125  0 1 0.125  0.125 1 0.125  0.25 1 0.125  0.375 1 0.125  0.5 1 0.125  0.625 1 0.125  0.75 1 0.125  0.875 1 0.125  1 1 0.125  0 0 0.25  0.125 0 0.25  0.25 0 0.25  0.375 0 0.25  0.5 0 0.25  0.625 0 0.25  0.75 0 0.25  0.875 0 0.25  1 0 0.25  0 0.125 0.25  0.125 0.125 0.25  0.25 0.125 0.25  0.375 0.125 0.25  0.5 0.125 0.25  0.625 0.125 0.25  0.75 0.125 0.25  0.875 0.125 0.25  1 0.125 0.25  0 0.25 0.25  0.125 0.25 0.25  0.25 0.25 0.25  0.375 0.25 0.25  0.5 0.25 0.25  0.625 0.25 0.25  0.75 0.25 0.25  0.875 0.25 0.25  1 0.25 0.25  0 0.375 0.25  0.125 0.375 0.25  0.25 0.375 0.25  0.375 0.375 0.25  0.5 0.375 0.25  0.625 0.375 0.25  0.75 0.375 0.25  0.875 0.375 0.25  1 0.375 0.25  0 0.5 0.25  0.125 0.5 0.25  0.25 0.5 0.25  0.375 0.5 0.25  0.5 0.5 0.25  0.625 0.5 0.25  0.75 0.5 0.25  0.875 0.5 0.25  1 0.5 0.25  0 0.625 0.25  0.125 0.625 0.25  0.25 0.625 0.25  0.375 0.625 0.25  0.5 0.625 0.25  0.625 0.625 0.25  0.75 0.625 0.25  0.875 0.625 0.25  1 0.625 0.25  0 0.75 0.25  0.125 0.75 0.25  0.25 0.75 0.25  0.375 0.75 0.25  0.5 0.75 0.25  0.625 0.75 0.25  0.75 0.75 0.25  0.875 0.75 0.25  1 0.75 0.25  0 0.875 0.25  0.125 0.875 0.25  0.25 0.875 0.25  0.375 0.875 0.25  0.5 0.875 0.25  0.625 0.875 0.25  0.75 0.875 0.25  0.875 0.875 0.25  1 0.875 0.25  0 1 0.25  0.125 1 0.25  0.25 1 0.25  0.375 1 0.25  0.5 1 0.25  0.625 1 0.25  0.75 1 0.25  0.875 1 0.25  1 1 0.25  0 0 0.375  0.125 0 0.375  0.25 0 0.375  0.375 0 0.375  0.5 0 0.375  0.625 0 0.375  0.75 0 0.375  0.875 0 0.375  1 0 0.375  0 0.125 0.375  0.125 0.125 0.375  0.25 0.125 0.375  0.375 0.125 0.375  0.5 0.125 0.375  0.625 0.125 0.375  0.75 0.125 0.375  0.875 0.125 0.375  1 0.125 0.375  0 0.25 0.375  0.125 0.25 0.375  0.25 0.25 0.375  0.375 0.25 0.375  0.5 0.25 0.375  0.625 0.25 0.375  0.75 0.25 0.375  0.875 0.25 0.375  1 0.25 0.375  0 0.375 0.375  0.125 0.375 0.375  0.25 0.375 0.375  0.375 0.375 0.375  0.5 0.375 0.375  0.625 0.375 0.375  0.75 0.375 0.375  0.875 0.375 0.375  1 0.375 0.375  0 0.5 0.375  0.125 0.5 0.375  0.25 0.5 0.375  0.375 0.5 0.375  0.5 0.5 0.375  0.625 0.5 0.375  0.75 0.5 0.375  0.875 0.5 0.375  1 0.5 0.375  0 0.625 0.375  0.125 0.625 0.375  0.25 0.625 0.375  0.375 0.625 0.375  0.5 0.625 0.375  0.625 0.625 0.375  0.75 0.625 0.375  0.875 0.625 0.375  1 0.625 0.375  0 0.75 0.375  0.125 0.75 0.375  0.25 0.75 0.375  0.375 0.75 0.375  0.5 0.75 0.375  0.625 0.75 0.375  0.75 0.75 0.375  0.875 0.75 0.375  1 0.75 0.375  0 0.875 0.375  0.125 0.875 0.375  0.25 0.875 0.375  0.375 0.875 0.375  0.5 0.875 0.375  0.625 0.875 0.375  0.75 0.875 0.375  0.875 0.875 0.375  1 0.875 0.375  0 1 0.375  0.125 1 0.375  0.25 1 0.375  0.375 1 0.375  0.5 1 0.375  0.625 1 0.375  0.75 1 0.375  0.875 1 0.375  1 1 0.375  0 0 0.5  0.125 0 0.5  0.25 0 0.5  0.375 0 0.5  0.5 0 0.5  0.625 0 0.5  0.75 0 0.5  0.875 0 0.5  1 0 0.5  0 0.125 0.5  0.125 0.125 0.5  0.25 0.125 0.5  0.375 0.125 0.5  0.5 0.125 0.5  0.625 0.125 0.5  0.75 0.125 0.5  0.875 0.125 0.5  1 0.125 0.5  0 0.25 0.5  0.125 0.25 0.5  0.25 0.25 0.5  0.375 0.25 0.5  0.5 0.25 0.5  0.625 0.25 0.5  0.75 0.25 0.5  0.875 0.25 0.5  1 0.25 0.5  0 0.375 0.5  0.125 0.375 0.5  0.25 0.375 0.5  0.375 0.375 0.5  0.5 0.375 0.5  0.625 0.375 0.5  0.75 0.375 0.5  0.875 0.375 0.5  1 0.375 0.5  0 0.5 0.5  0.125 0.5 0.5  0.25 0.5 0.5  0.375 0.5 0.5  0.5 0.5 0.5  0.625 0.5 0.5  0.75 0.5 0.5  0.875 0.5 0.5  1 0.5 0.5  0 0.625 0.5  0.125 0.625 0.5  0.25 0.625 0.5  0.375 0.625 0.5  0.5 0.625 0.5  0.625 0.625 0.5  0.75 0.625 0.5  0.875 0.625 0.5  1 0.625 0.5  0 0.75 0.5  0.125 0.75 0.5  0.25 0.75 0.5  0.375 0.75 0.5  0.5 0.75 0.5  0.625 0.75 0.5  0.75 0.75 0.5  0.875 0.75 0.5  1 0.75 0.5  0 0.875 0.5  0.125 0.875 0.5  0.25 0.875 0.5  0.375 0.875 0.5  0.5 0.875 0.5  0.625 0.875 0.5  0.75 0.875 0.5  0.875 0.875 0.5  1 0.875 0.5  0 1 0.5  0.125 1 0.5  0.25 1 0.5  0.375 1 0.5  0.5 1 0.5  0.625 1 0.5  0.75 1 0.5  0.875 1 0.5  1 1 0.5  0 0 0.625  0.125 0 0.625  0.25 0 0.625  0.375 0 0.625  0.5 0 0.625  0.625 0 0.625  0.75 0 0.625  0.875 0 0.625  1 0 0.625  0 0.125 0.625  0.125 0.125 0.625  0.25 0.125 0.625  0.375 0.125 0.625  0.5 0.125 0.625  0.625 0.125 0.625  0.75 0.125 0.625  0.875 0.125 0.625  1 0.125 0.625  0 0.25 0.625  0.125 0.25 0.625  0.25 0.25 0.625  0.375 0.25 0.625  0.5 0.25 0.625  0.625 0.25 0.625  0.75 0.25 0.625  0.875 0.25 0.625  1 0.25 0.625  0 0.375 0.625  0.125 0.375 0.625  0.25 0.375 0.625  0.375 0.375 0.625  0.5 0.375 0.625  0.625 0.375 0.625  0.75 0.375 0.625  0.875 0.375 0.625  1 0.375 0.625  0 0.5 0.625  0.125 0.5 0.625  0.25 0.5 0.625  0.375 0.5 0.625  0.5 0.5 0.625  0.625 0.5 0.625  0.75 0.5 0.625  0.875 0.5 0.625  1 0.5 0.625  0 0.625 0.625  0.125 0.625 0.625  0.25 0.625 0.625  0.375 0.625 0.625  0.5 0.625 0.625  0.625 0.625 0.625  0.75 0.625 0.625  0.875 0.625 0.625  1 0.625 0.625  0 0.75 0.625  0.125 0.75 0.625  0.25 0.75 0.625  0.375 0.75 0.625  0.5 0.75 0.625  0.625 0.75 0.625  0.75 0.75 0.625  0.875 0.75 0.625  1 0.75 0.625  0 0.875 0.625  0.125 0.875 0.625  0.25 0.875 0.625  0.375 0.875 0.625  0.5 0.875 0.625  0.625 0.875 0.625  0.75 0.875 0.625  0.875 0.875 0.625  1 0.875 0.625  0 1 0.625  0.125 1 0.625  0.25 1 0.625  0.375 1 0.625  0.5 1 0.625  0.625 1 0.625  0.75 1 0.625  0.875 1 0.625  1 1 0.625  0 0 0.75  0.125 0 0.75  0.25 0 0.75  0.375 0 0.75  0.5 0 0.75  0.625 0 0.75  0.75 0 0.75  0.875 0 0.75  1 0 0.75  0 0.125 0.75  0.125 0.125 0.75  0.25 0.125 0.75  0.375 0.125 0.75  0.5 0.125 0.75  0.625 0.125 0.75  0.75 0.125 0.75  0.875 0.125 0.75  1 0.125 0.75  0 0.25 0.75  0.125 0.25 0.75  0.25 0.25 0.75  0.375 0.25 0.75  0.5 0.25 0.75  0.625 0.25 0.75  0.75 0.25 0.75  0.875 0.25 0.75  1 0.25 0.75  0 0.375 0.75  0.125 0.375 0.75  0.25 0.375 0.75  0.375 0.375 0.75  0.5 0.375 0.75  0.625 0.375 0.75  0.75 0.375 0.75  0.875 0.375 0.75  1 0.375 0.75  0 0.5 0.75  0.125 0.5 0.75  0.25 0.5 0.75  0.375 0.5 0.75  0.5 0.5 0.75  0.625 0.5 0.75  0.75 0.5 0.75  0.875 0.5 0.75  1 0.5 0.75  0 0.625 0.75  0.125 0.625 0.75  0.25 0.625 0.75  0.375 0.625 0.75  0.5 0.625 0.75  0.625 0.625 0.75  0.75 0.625 0.75  0.875 0.625 0.75  1 0.625 0.75  0 0.75 0.75  0.125 0.75 0.75  0.25 0.75 0.75  0.375 0.75 0.75  0.5 0.75 0.75  0.625 0.75 0.75  0.75 0.75 0.75  0.875 0.75 0.75  1 0.75 0.75  0 0.875 0.75  0.125 0.875 0.75  0.25 0.875 0.75  0.375 0.875 0.75  0.5 0.875 0.75  0.625 0.875 0.75  0.75 0.875 0.75  0.875 0.875 0.75  1 0.875 0.75  0 1 0.75  0.125 1 0.75  0.25 1 0.75  0.375 1 0.75  0.5 1 0.75  0.625 1 0.75  0.75 1 0.75  0.875 1 0.75  1 1 0.75  0 0 0.875  0.125 0 0.875  0.25 0 0.875  0.375 0 0.875  0.5 0 0.875  0.625 0 0.875  0.75 0 0.875  0.875 0 0.875  1 0 0.875  0 0.125 0.875  0.125 0.125 0.875  0.25 0.125 0.875  0.375 0.125 0.875  0.5 0.125 0.875  0.625 0.125 0.875  0.75 0.125 0.875  0.875 0.125 0.875  1 0.125 0.875  0 0.25 0.875  0.125 0.25 0.875  0.25 0.25 0.875  0.375 0.25 0.875  0.5 0.25 0.875  0.625 0.25 0.875  0.75 0.25 0.875  0.875 0.25 0.875  1 0.25 0.875  0 0.375 0.875  0.125 0.375 0.875  0.25 0.375 0.875  0.375 0.375 0.875  0.5 0.375 0.875  0.625 0.375 0.875  0.75 0.375 0.875  0.875 0.375 0.875  1 0.375 0.875  0 0.5 0.875  0.125 0.5 0.875  0.25 0.5 0.875  0.375 0.5 0.875  0.5 0.5 0.875  0.625 0.5 0.875  0.75 0.5 0.875  0.875 0.5 0.875  1 0.5 0.875  0 0.625 0.875  0.125 0.625 0.875  0.25 0.625 0.875  0.375 0.625 0.875  0.5 0.625 0.875  0.625 0.625 0.875  0.75 0.625 0.875  0.875 0.625 0.875  1 0.625 0.875  0 0.75 0.875  0.125 0.75 0.875  0.25 0.75 0.875  0.375 0.75 0.875  0.5 0.75 0.875  0.625 0.75 0.875  0.75 0.75 0.875  0.875 0.75 0.875  1 0.75 0.875  0 0.875 0.875  0.125 0.875 0.875  0.25 0.875 0.875  0.375 0.875 0.875  0.5 0.875 0.875  0.625 0.875 0.875  0.75 0.875 0.875  0.
[...]
<PointData  Vectors="f_1047"> 
<DataArray  type="Float64"  Name="f_1047"  NumberOfComponents="3" format="ascii">1.5658871816209764e-02 0.0000000000000000e+00 0.0000000000000000e+00  1.3749202792763957e-02 -9.2569549609011759e-08 1.5337507898694935e-02  1.1379342827658085e-02 -2.0815323176215372e-07 2.7551687579699193e-02  8.7762537930543560e-03 -3.4919472136074603e-07 3.5595959994656555e-02  5.8963076032119421e-03 -5.1793027489033250e-07 3.8901589745132012e-02  2.6061033610858264e-03 -7.1625063080560381e-07 3.7137803221751316e-02  -1.1335382315016511e-03 -9.4553591867274633e-07 3.0139804961659963e-02  -5.2365091270217684e-03 -1.2064617671558864e-06 1.7939722950457350e-02  0.0000000000000000e+00 -1.4987752736672633e-06 1.4987752736672633e-06  2.9100842816237593e-02 0.0000000000000000e+00 -9.7962202683099520e-08  2.5536515360573969e-02 -1.0489504168043062e-07 2.8698726199938268e-02  2.1170442718427343e-02 -2.3586851272128229e-07 5.1130904332405913e-02  1.6655089765901784e-02 -3.9568945886525597e-07 6.5205267088135899e-02  1.1930828818068770e-02 -5.8689188986438268e-07 7.0045300622607554e-02  6.6977764680449386e-03 -8.1161829390552498e-07 6.5344592939762802e-02  1.0415107959479836e-03 -1.0714325633376376e-06 5.1238991534452050e-02  -3.9005267736813704e-03 -1.3671002836446178e-06 2.8718691227788695e-02  2.2206280525516320e-07 -1.7129936329407514e-06 1.4467047573241132e-06  3.9067742145546328e-02 0.0000000000000000e+00 -2.1940631539374422e-07  3.3678832791874169e-02 -1.1886165449115360e-07 3.8825792998974512e-02  2.7360017222492969e-02 -2.6727403995563392e-07 6.8233040817921697e-02  2.1225463563373279e-02 -4.4837489754367965e-07 8.5442058043943225e-02  1.5243801948149338e-02 -6.6503563767028595e-07 8.9716717375853960e-02  8.9530257054199619e-03 -9.1968401294550972e-07 8.1301421519702322e-02  2.5099854009923844e-03 -1.2140921514802727e-06 6.1247358284422626e-02  -2.0925416289210678e-03 -1.5491275724421882e-06 3.2252210123311364e-02  4.9933364565379890e-07 -1.9550545987678802e-06 1.3586463984971431e-06  4.4766527458555500e-02 0.0000000000000000e+00 -3.6658512392317988e-07  3.7637437989985950e-02 -1.3468789997195252e-07 4.4873142867115218e-02  3.0017852681166329e-02 -3.0286116525779505e-07 7.7193554882772131e-02  2.3396813773927605e-02 -5.0807532192553850e-07 9.4199653972928732e-02  1.7673201324128210e-02 -7.5358410400738762e-07 9.5899688446306364e-02  1.2052569973565588e-02 -1.0421385181480503e-06 8.3603427035748412e-02  6.4293038772712946e-03 -1.3757466450492473e-06 5.9698081590226382e-02  3.2876495704614248e-03 -1.7553915121482078e-06 2.8801454189953946e-02  8.3767459169159508e-07 -2.2279771676458893e-06 1.2314954891401442e-06  4.5553204957916267e-02 0.0000000000000000e+00 -5.4146449612879621e-07  3.7110953128651314e-02 -1.5262138552962767e-07 4.6139023133703994e-02  2.9341964272731141e-02 -3.4318666075616733e-07 7.6941465380015894e-02  2.3885729380481183e-02 -5.7572476352962809e-07 9.0528998347859546e-02  2.0434352293803582e-02 -8.5392265969375103e-07 8.8171165595144263e-02  1.7669342670907473e-02 -1.1808976492222456e-06 7.2523738856748121e-02  1.4694474141876350e-02 -1.5589251822767380e-06 4.7419381991637533e-02  1.3825466871413429e-02 -1.9891191747056780e-06 1.9204849969242321e-02  1.2424501409924460e-06 -2.5350353185515928e-06 1.0631822200402041e-06  4.0829099302837915e-02 0.0000000000000000e+00 -7.4557021889631869e-07  3.1911862781117795e-02 -1.7294268683798464e-07 4.1913841247879224e-02  2.5469964020343891e-02 -3.8888143427673327e-07 6.6753478203276484e-02  2.2853326935111315e-02 -6.5238162716418913e-07 7.4422464120739606e-02  2.3546763794280404e-02 -9.6762114232262775e-07 6.7601944841312767e-02  2.5830020366092374e-02 -1.3381323449301874e-06 5.0113706290780602e-02  2.7511059429096860e-02 -1.7664936580175095e-06 2.6929514920678077e-02  2.9087220666324007e-02 -2.2539673176780184e-06 5.5100318487464328e-03  1.7181959410805803e-06 -2.8797797473334441e-06 8.5310977149255507e-07  3.0126418524447751e-02 0.0000000000000000e+00 -9.7980664182095722e-07  2.2273527986815651e-02 -1.9596973793722938e-07 3.1599941232992090e-02  1.8594991572579878e-02 -4.4066039517343114e-07 4.6943343498421330e-02  1.9505469109482282e-02 -7.3924523147361754e-07 4.8211177686900752e-02  2.4489415728133887e-02 -1.0964584007400191e-06 3.8893700291313005e-02  3.2179239507144977e-02 -1.5163025968156774e-06 2.2999466230810839e-02  3.9592369956685282e-02 -2.0016995554428263e-06 5.4584483350956781e-03  4.2612929303390633e-02 -2.5540795789424919e-06 -6.7237653813991827e-03  2.2682227545089972e-06 -3.2660647575344370e-06 6.0267417212322982e-07  1.3275074626341822e-02 0.0000000000000000e+00 -1.2442454946359760e-06  9.5348947169234324e-03 -2.2206280525516320e-07 1.5504001813039681e-02  9.0675667513119770e-03 -4.9933364565379890e-07 2.1398282951036074e-02  1.1673807441115361e-02 -8.3767459169159508e-07 2.0673769123314534e-02  1.6858727702530003e-02 -1.2424501409924460e-06 1.6246967623440689e-02  2.3636877632919204e-02 -1.7181959410805803e-06 1.0565479939879108e-02  2.9303926719031585e-02 -2.2682227545089972e-06 5.3929144865980660e-03  2.5939844875710341e-02 -2.8941513239288952e-06 1.2278071281048852e-03  2.8941513239288952e-06 -3.6980817961218548e-06 3.1587187865333988e-07  1.4987752736672633e-06 0.0000000000000000e+00 -1.4987752736672633e-06  1.7129936329407514e-06 -2.2206280525516320e-07 -1.4467047573241132e-06  1.9550545987678802e-06 -4.9933364565379890e-07 -1.3586463984971431e-06  2.2279771676458893e-06 -8.3767459169159508e-07 -1.2314954891401442e-06  2.5350353185515928e-06 -1.2424501409924460e-06 -1.0631822200402041e-06  2.8797797473334441e-06 -1.7181959410805803e-06 -8.5310977149255507e-07  3.2660647575344370e-06 -2.2682227545089972e-06 -6.0267417212322982e-07  3.6980817961218548e-06 -2.8941513239288952e-06 -3.1587187865333988e-07  3.5953749719652706e-06 -3.5953749719652706e-06 0.0000000000000000e+00  2.9166453371197363e-02 9.2569549609011759e-08 5.3926530740877610e-09  2.5557086516364173e-02 1.5107416763484732e-02 1.3814774845508943e-02  2.1116371096512390e-02 2.7050653811127506e-02 2.4502029954949656e-02  1.6455311379642526e-02 3.4746759075341693e-02 3.1057885191224488e-02  1.1527845321001914e-02 3.7625344624407697e-02 3.3123850245697362e-02  6.0513237883205034e-03 3.5380008103904848e-02 3.0667923486595194e-02  6.5277991123602330e-05 2.7938309753553936e-02 2.3904093457105036e-02  -5.2989574926172421e-03 1.5642806933937381e-02 1.3443566844026034e-02  -2.2206280525516320e-07 -1.4320460077765773e-06 1.6983348833932155e-06  5.4454101281507544e-02 1.0489504168043062e-07 -1.0489504168043062e-07  4.8462372210329320e-02 1.4961629721930367e-02 2.6482140076325579e-02  4.1747598487689122e-02 2.6512819408936489e-02 4.6806406295358441e-02  3.5379586175840749e-02 3.3896235850659706e-02 5.8834609293641038e-02  2.8855139432292620e-02 3.6749028929526917e-02 6.1973248616231463e-02  2.1143850895733132e-02 3.4877875326608132e-02 5.6309765342575382e-02  1.2129582512811543e-02 2.8170179551860519e-02 4.2497664695188231e-02  4.5127227073379697e-03 1.6609444370520698e-02 2.2367643483660986e-02  1.6917149946746909e-02 -1.6393312609608301e-06 1.6393312609608301e-06  7.2857694690006081e-02 1.1886165449115360e-07 -2.4169562334863670e-07  6.4177322446320406e-02 1.5752471472179695e-02 3.5523754163251549e-02  5.5011023796322750e-02 2.7264151045631818e-02 6.2027138122400099e-02  4.6901295478118832e-02 3.4657959727953269e-02 7.6338766807093839e-02  3.8964417041701060e-02 3.8071990741948558e-02 7.7933996242106729e-02  2.9489498639508616e-02 3.7447986538877265e-02 6.7546134214316045e-02  1.8237927407643184e-02 3.2208333968293257e-02 4.7167241496577805e-02  9.3939385358568911e-03 2.0874587620500318e-02 2.1401255479649661e-02  2.3977845264866682e-02 -1.8734454091395847e-06 1.5395480637003800e-06  8.2954081089851847e-02 1.3468789997195252e-07 -4.0754910166085345e-07  7.1609282485934705e-02 1.7340268859645531e-02 4.0465110231577880e-02  6.0848581950324748e-02 2.9148145496602440e-02 6.9050127030790664e-02  5.2577785930083387e-02 3.6898464165721401e-02 8.2142501385481625e-02  4.5414155615957658e-02 4.1533134028665097e-02 7.9820960932096785e-02  3.6652885390838719e-02 4.3161859121496393e-02 6.3995454064967094e-02  2.5284999979603387e-02 4.0254642725336964e-02 3.8628368372519706e-02  1.6415592858677400e-02 2.8606699552244930e-02 1.1872689996667685e-02  2.8783328347086745e-02 -2.1371808562875572e-06 1.3954672102300947e-06  8.3726314679055835e-02 1.5262138552962767e-07 -6.0466867390918111e-07  7.0189840582345064e-02 1.9105656443071755e-02 4.0962254355859276e-02  5.9439241434452617e-02 3.1092622371491851e-02 6.7392262639688505e-02  5.3537983106132642e-02 3.9210398324272200e-02 7.6047320983420263e-02  5.0500299609795157e-02 4.5500445829784519e-02 6.8097138497357657e-02  4.6261885286195903e-02 5.0383791907899100e-02 4.6868692710233084e-02  3.7921357401967198e-02 5.1061607881015103e-02 1.8471333717984262e-02  3.0254324604226973e-02 3.9287995037992740e-02 -5.0693467229225853e-03  3.5740068723025598e-02 -2.4335352122317744e-06 1.2047432849104922e-06  7.4345175191024640e-02 1.7294268683798464e-07 -8.3476693824025006e-07  5.9621049432974305e-02 2.0154678578829299e-02 3.6617514022099062e-02  5.0828950233477527e-02 3.1552649400015731e-02 5.6898860178901389e-02  4.9704823344227850e-02 3.9506646077759333e-02 5.8928408455382719e-02  5.3897703675009595e-02 4.7329495314807346e-02 4.5117361398686606e-02  5.8292551792304692e-02 5.6061252895456493e-02 1.9846177334739368e-02  5.7061829475016146e-02 6.1894227500101540e-02 -9.2392690236398067e-03  5.1674600731109799e-02 5.1662769538885378e-02 -2.6659969992481880e-02  4.7255331426500291e-02 -2.7657248546919533e-06 9.6670001714649345e-07  5.4618298985095980e-02 1.9596973793722938e-07 -1.0988501308317744e-06  4.0690603927585098e-02 1.9709993354857066e-02 2.6916459341734315e-02  3.5497484884234293e-02 2.9400114744914774e-02 3.8139285009872070e-02  3.9456669609107570e-02 3.6300300601090907e-02 3.3904740794246546e-02  5.0505987174268990e-02 4.4746332243758902e-02 1.7308318651723331e-02  6.4164743359183957e-02 5.6625928347127541e-02 -7.4834279682041149e-03  7.2715617634474691e-02 6.8256357540619650e-02 -3.3391343923926620e-02  6.9860319934710605e-02 6.2730026670712036e-02 -4.4419914067567845e-02  6.1327265706456746e-02 -3.1372026743081705e-06 6.8291930577224491e-07  2.6142499590772354e-02 2.2206280525516320e-07 -1.3969785550571601e-06  1.7358814626325221e-02 1.7939185040890746e-02 1.1265999869837909e-02  1.5843542871056632e-02 2.5652579809651577e-02 1.3935224955281822e-02  2.0712002837756670e-02 3.1223155177053208e-02 9.1652326277791296e-03  3.0573558611799528e-02 3.9260838015486854e-02 -7.3474073829116193e-04  4.2572471816809024e-02 5.2050800240396988e-02 -1.3491753854016242e-02  5.0037876252771396e-02 6.6725867572029252e-02 -2.6197192547589232e-02  3.9507952045280140e-02 6.6493998164989243e-02 -3.1786194220829067e-02  6.2828749318678767e-02 -3.5516818610581424e-06 3.5792973074322276e-07  1.4320460077765773e-06 2.2206280525516320e-07 -1.6983348833932155e-06  1.6393312609608301e-06 1.7939185040890746e-02 -1.6393312609608301e-06  1.8734454091395847e-06 2.5652579809651577e-02 -1.5395480637003800e-06  2.1371808562875572e-06 3.1223155177053208e-02 -1.3954672102300947e-06  2.4335352122317744e-06 3.9260838015486854e-02 -1.2047432849104922e-06  2.7657248546919533e-06 5.2050800240396988e-02 -9.6670001714649345e-07  3.1372026743081705e-06 6.6725867572029252e-02 -6.8291930577224491e-07  3.5516818610581424e-06 6.6493998164989243e-02 -3.5792973074322276e-07  3.4704643017136050e-06 9.0090873936167479e-02 0.0000000000000000e+00  3.9150429329658842e-02 2.0815323176215372e-07 1.1253083631590499e-08  3.3662607960840293e-02 2.7004499397719067e-02 1.2225016717447384e-02  2.7252707633983672e-02 4.8057542924298494e-02 2.0897588981095491e-02  2.0883451942962872e-02 6.0766961289860699e-02 2.5714898477277814e-02  1.4558135839809624e-02 6.4138681800008035e-02 2.6832760313277748e-02  7.9069619762013044e-03 5.7972979865277496e-02 2.4617813401590749e-02  1.0584713958592673e-03 4.2937406107429466e-02 1.9452830753102557e-02  -4.0715548354830905e-03 2.1434868979741672e-02 1.1567476012762312e-02  -4.9933364565379890e-07 -1.3280573430973774e-06 1.9244655433681146e-06  7.2810629160273380e-02 2.3586851272128229e-07 -1.1303454386379919e-07  6.4066015343052937e-02 2.6420815814819781e-02 2.4996211444497651e-02  5.4887276341498897e-02 4.6592053615396388e-02 4.2903488230430671e-02  4.6675445028763446e-02 5.8502965931338913e-02 5.2788017473963389e-02  3.8583709587120540e-02 6.1460776775561499e-02 5.4920647669620209e-02  2.9028588982473347e-02 5.5471889475841807e-02 4.9953482894520784e-02  1.7787503634329960e-02 4.1281746125875651e-02 3.8563969444402491e-02  8.9425402795771589e-03 2.1139717783993373e-02 2.1498562935522381e-02  2.3766725451950355e-02 -1.5237083337282797e-06 1.8576056790564621e-06  9.6329046301751875e-02 2.6727403995563392e-07 -2.6727403995563392e-07  8.3949798007972101e-02 2.7073907291024324e-02 3.3748372997346163e-02  7.1572355705540824e-02 4.6714047323160715e-02 5.7177127075609471e-02  6.1083840845789300e-02 5.8137046138596160e-02 6.8488661929523881e-02  5.0973367478741954e-02 6.1414392091640235e-02 6.8189734406231300e-02  3.8706311062118540e-02 5.6783989837781101e-02 5.7817366793105271e-02  2.4006114971945006e-02 4.4440749017357950e-02 3.9771808181722906e-02  1.3046389447060193e-02 2.5003234039742139e-02 1.8074745133930807e-02  3.2251179840628551e-02 -1.7445365094737042e-06 1.7445365094737042e-06  1.0804867684911897e-01 3.0286116525779505e-07 -4.5433147582985001e-07  9.1851692216716213e-02 2.8822186857976689e-02 3.8749577092432846e-02  7.7009755431158233e-02 4.8340489181722006e-02 6.3749147709134202e-02  6.5824784310601125e-02 5.9727697757546050e-02 7.2838512282069889e-02  5.6062601195983747e-02 6.4320848704745304e-02 6.7214752851364246e-02  4.3947380792348806e-02 6.2621181541592685e-02 4.9918289452235753e-02  2.8424826337035844e-02 5.3468386131140910e-02 2.6107202341090985e-02  1.6965558209086753e-02 3.3924470403893903e-02 4.5889285173348338e-03  3.5616307262331004e-02 -1.9930105014109856e-06 1.5812715088436846e-06  1.0712399211572050e-01 3.4318666075616733e-07 -6.7670097603222956e-07  8.7365711070155283e-02 3.0662213515744607e-02 4.0157988698698466e-02  7.1683435415029778e-02 4.9707249351261328e-02 6.2986080228326774e-02  6.2623569054746919e-02 6.0923806215086196e-02 6.6807663526661121e-02  5.7159183309056116e-02 6.7432843879088433e-02 5.3959227980148960e-02  4.9853862898542656e-02 7.0227181512067194e-02 2.9202990059688405e-02  3.7533599059217132e-02 6.6238246980155235e-02 7.9010392285705500e-04  2.7444292099560161e-02 4.6925558684561164e-02 -1.6828150084565063e-02  4.0951852712808323e-02 -2.2717388943327421e-06 1.3651529919833649e-06  9.3142250943878402e-02 3.8888143427673327e-07 -9.3630758224438893e-07  7.0813593344292436e-02 3.1183721479954185e-02 3.7652423577723360e-02  5.6508979177393698e-02 4.8341331794282516e-02 5.4946706079945951e-02  5.2433220024453220e-02 5.8330544325503442e-02 5.1815476958453677e-02  5.5066674638546781e-02 6.6393163991888660e-02 3.1844129580395508e-02  5.7665766485851033e-02 7.4520957203209504e-02 9.2645629646526118e-04  5.3751990946855024e-02 7.8074168384746567e-02 -3.0461630348555646e-02  4.7125057581667865e-02 6.1555781268342269e-02 -4.2432420169428386e-02  5.2579864296199208e-02 -2.5834731827156787e-06 1.0954146290043099e-06  6.6862388614626428e-02 4.4066039517343114e-07 -1.2342738519022234e-06  4.4665490909892760e-02 2.9327128217690901e-02 2.9842375635917517e-02  3.4170095551914928e-02 4.2760812072081024e-02 3.8985761312585486e-02  3.5868646077465510e-02 5.0028708872869365e-02 3.0032482014414330e-02  4.6571228392766645e-02 5.8153629730235634e-02 7.1391549470727345e-03  6.0187057864927340e-02 7.0519970347598493e-02 -2.4344028136330964e-02  6.8039828484389941e-02 8.2545588641075085e-02 -5.4625501243311891e-02  6.5936358443034679e-02 7.3285009556486980e-02 -6.2077734808536622e-02  6.8515788121878973e-02 -2.9311139928545060e-06 7.7384895558196831e-07  3.2069685397168597e-02 4.9933364565379890e-07 -1.5706480948063373e-06  1.7186439585649943e-02 2.5807446571681825e-02 1.3164115189939485e-02  1.2126310109126626e-02 3.5380733996014553e-02 1.4089234567259239e-02  1.5703184662151468e-02 3.9775916585209847e-02 5.9495235821376280e-03  2.5996878667394460e-02 4.6613594726121033e-02 -8.5689743814403307e-03  3.9226215001828074e-02 6.0078970254873187e-02 -2.6676208738723339e-02  4.7718348103700042e-02 7.6840079473626144e-02 -4.3615698063626862e-02  3.8668086466894888e-02 7.5669744472460998e-02 -4.7330067143146692e-02  6.9958779276004357e-02 -3.3177221173685822e-06 4.0558752079089544e-07  1.3280573430973774e-06 4.9933364565379890e-07 -1.9244655433681146e-06  1.5237083337282797e-06 2.5807446571681825e-02 -1.8576056790564621e-06  1.7445365094737042e-06 3.5380733996014553e-02 -1.7445365094737042e-06  1.9930105014109856e-06 3.9775916585209847e-02 -1.5812715088436846e-06  2.2717388943327421e-06 4.6613594726121033e-02 -1.3651529919833649e-06  2.5834731827156787e-06 6.0078970254873187e-02 -1.0954146290043099e-06  2.9311139928545060e-06 7.6840079473626144e-02 -7.7384895558196831e-07  3.3177221173685822e-06 7.5669744472460998e-02 -4.0558752079089544e-07  3.2592232761530227e-06 9.7243560041329488e-02 0.0000000000000000e+00  4.4830109669465698e-02 3.4919472136074603e-07 1.7390402562433849e-08  3.7521719612776408e-02 3.4641816478268916e-02 1.0777091643586645e-02  2.9819277185361703e-02 6.0701869852442608e-02 1.7411028257488553e-02  2.2851626714627996e-02 7.4880081088979644e-02 2.0690369355991056e-02  1.6577465738059446e-02 7.6187620824416380e-02 2.1431413198337135e-02  1.0439706011704145e-02 6.5075109006647924e-02 2.0318126516763790e-02  4.4320204495457705e-03 4.3722211908194364e-02 1.7523303837201354e-02  8.6331759539745936e-04 1.7712929747032202e-02 1.2083726798244543e-02  -8.3767459169159508e-07 -1.1842234781678229e-06 2.1807051568956126e-06  8.2803956986323507e-02 3.9568945886525597e-07 -1.2282825717635504e-07  7.1309424832490420e-02 3.3649470328155462e-02 2.4373908464839056e-02  6.0576646404784829e-02 5.8301460036562003e-02 4.0152150637785489e-02  5.2057582233420108e-02 7.1095125337249154e-02 4.8385546874920915e-02  4.4469118756612386e-02 7.1397623205037897e-02 5.0588070827307818e-02  3.5534728163512108e-02 5.9975156731083890e-02 4.7897621512782762e-02  2.4458359052935433e-02 3.9333266418551061e-02 4.0246143487188690e-02  1.6028568384930705e-02 1.5386559737787353e-02 2.5550937498053594e-02  2.8751853642284164e-02 -1.3632293529575179e-06 2.1049429990149804e-06  1.0789071190092357e-01 4.4837489754367965e-07 -2.9690458697162470e-07  9.1623054636132101e-02 3.4106868892339048e-02 3.3474547441452424e-02  7.6874471014218626e-02 5.7618921578396098e-02 5.4389414411520481e-02  6.5584270218661311e-02 6.9172074647979170e-02 6.3389924964571659e-02  5.5602491707363338e-02 6.9071960080574368e-02 6.2590013462591909e-02  4.3509168873787335e-02 5.8464259506136984e-02 5.4262409189755889e-02  2.8440023039484369e-02 3.9552305170819091e-02 4.0154793219741525e-02  1.7608194947611601e-02 1.7115973526538042e-02 2.1333721826050089e-02  3.6170771379743893e-02 -1.5650798498301199e-06 1.9768188428415101e-06  1.1879741021568459e-01 5.0807532192553850e-07 -5.0807532192553850e-07  9.7178541617111425e-02 3.5942745160423728e-02 3.9376476297666607e-02  7.8672961268572178e-02 5.8769797452627281e-02 6.1791915176099582e-02  6.5693576550394817e-02 6.9516977685806919e-02 6.7843714143939693e-02  5.5289785661046198e-02 7.0073760408075447e-02 6.0592195838428342e-02  4.2786291543552540e-02 6.2034175175195938e-02 4.4165189864645099e-02  2.6639630990614449e-02 4.6409056784249003e-02 2.3638198124911317e-02  1.5372529650107304e-02 2.4670306719834389e-02 5.5791626467857625e-03  3.4425704404628256e-02 -1.7918153640827938e-06 1.7918153640827938e-06  1.1540113072817987e-01 5.7572476352962809e-07 -7.5915426522854546e-07  8.8267532563055584e-02 3.7946483183370572e-02 4.2837524372925428e-02  6.7321487608865610e-02 5.9601104852568976e-02 6