<?xml version="1.0"?>
<VTKFile type="UnstructuredGrid"  version="0.1"  >
<UnstructuredGrid>
<Piece  NumberOfPoints="81" NumberOfCells="128">
<Points>
<DataArray  type="Float64"  NumberOfComponents="3"  format="ascii">0 0 0  0.125 0 0  0.25 0 0  0.375 0 0  0.5 0 0  0.625 0 0  0.75 0 0  0.875 0 0  1 0 0  0 0.125 0  0.125 0.125 0  0.25 0.125 0  0.375 0.125 0  0.5 0.125 0  0.625 0.125 0  0.75 0.125 0  0.875 0.125 0  1 0.125 0  0 0.25 0  0.125 0.25 0  0.25 0.25 0  0.375 0.25 0  0.5 0.25 0  0.625 0.25 0  0.75 0.25 0  0.875 0.25 0  1 0.25 0  0 0.375 0  0.125 0.375 0  0.25 0.375 0  0.375 0.375 0  0.5 0.375 0  0.625 0.375 0  0.75 0.375 0  0.875 0.375 0  1 0.375 0  0 0.5 0  0.125 0.5 0  0.25 0.5 0  0.375 0.5 0  0.5 0.5 0  0.625 0.5 0  0.75 0.5 0  0.875 0.5 0  1 0.5 0  0 0.625 0  0.125 0.625 0  0.25 0.625 0  0.375 0.625 0  0.5 0.625 0  0.625 0.625 0  0.75 0.625 0  0.875 0.625 0  1 0.625 0  0 0.75 0  0.125 0.75 0  0.25 0.75 0  0.375 0.75 0  0.5 0.75 0  0.625 0.75 0  0.75 0.75 0  0.875 0.75 0  1 0.75 0  0 0.875 0  0.125 0.875 0  0.25 0.875 0  0.375 0.875 0  0.5 0.875 0  0.625 0.875 0  0.75 0.875 0  0.875 0.875 0  1 0.875 0  0 1 0  0.125 1 0  0.25 1 0  0.375 1 0  0.5 1 0  0.625 1 0  0.75 1 0  0.875 1 0  1 1 0  </DataArray>
</Points>
<Cells>
<DataArray  type="UInt32"  Name="connectivity"  format="ascii">0 1 10  0 9 10  1 2 11  1 10 11  2 3 12  2 11 12  3 4 13  3 12 13  4 5 14  4 13 14  5 6 15  5 14 15  6 7 16  6 15 16  7 8 17  7 16 17  9 10 19  9 18 19  10 11 20  10 19 20  11 12 21  11 20 21  12 13 22  12 21 22  13 14 23  13 22 23  14 15 24  14 23 24  15 16 25  15 24 25  16 17 26  16 25 26  18 19 28  18 27 28  19 20 29  19 28 29  20 21 30  20 29 30  21 22 31  21 30 31  22 23 32  22 31 32  23 24 33  23 32 33  24 25 34  24 33 34  25 26 35  25 34 35  27 28 37  27 36 37  28 29 38  28 37 38  29 30 39  29 38 39  30 31 40  30 39 40  31 32 41  31 40 41  32 33 42  32 41 42  33 34 43  33 42 43  34 35 44  34 43 44  36 37 46  36 45 46  37 38 47  37 46 47  38 39 48  38 47 48  39 40 49  39 48 49  40 41 50  40 49 50  41 42 51  41 50 51  42 43 52  42 51 52  43 44 53  43 52 53  45 46 55  45 54 55  46 47 56  46 55 56  47 48 57  47 56 57  48 49 58  48 57 58  49 50 59  49 58 59  50 51 60  50 59 60  51 52 61  51 60 61  52 53 62  52 61 62  54 55 64  54 63 64  55 56 65  55 64 65  56 57 66  56 65 66  57 58 67  57 66 67  58 59 68  58 67 68  59 60 69  59 68 69  60 61 70  60 69 70  61 62 71  61 70 71  63 64 73  63 72 73  64 65 74  64 73 74  65 66 75  65 74 75  66 67 76  66 75 76  67 68 77  67 76 77  68 69 78  68 77 78  69 70 79  69 78 79  70 71 80  70 79 80  </DataArray>
<DataArray  type="UInt32"  Name="offsets"  format="ascii">3 6 9 12 15 18 21 24 27 30 33 36 39 42 45 48 51 54 57 60 63 66 69 72 75 78 81 84 87 90 93 96 99 102 105 108 111 114 117 120 123 126 129 132 135 138 141 144 147 150 153 156 159 162 165 168 171 174 177 180 183 186 189 192 195 198 201 204 207 210 213 216 219 222 225 228 231 234 237 240 243 246 249 252 255 258 261 264 267 270 273 276 279 282 285 288 291 294 297 300 303 306 309 312 315 318 321 324 327 330 333 336 339 342 345 348 351 354 357 360 363 366 369 372 375 378 381 384 </DataArray>
<DataArray  type="UInt8"  Name="types"  format="ascii">5 5 5 5 5 5 5 5 5 5 5 5 5 5 5 5 5 5 5 5 5 5 5 5 5 5 5 5 5 5 5 5 5 5 5 5 5 5 5 5 5 5 5 5 5 5 5 5 5 5 5 5 5 5 5 5 5 5 5 5 5 5 5 5 5 5 5 5 5 5 5 5 5 5 5 5 5 5 5 5 5 5 5 5 5 5 5 5 5 5 5 5 5 5 5 5 5 5 5 5 5 5 5 5 5 5 5 5 5 5 5 5 5 5 5 5 5 5 5 5 5 5 5 5 5 5 5 5 </DataArray>
</Cells>
<<<<<<< HEAD
<PointData  Scalars="f_1527"> 
<DataArray  type="Float64"  Name="f_1527"  format="ascii">0.0000000000000000e+00  1.5624364224883372e-02  3.1244913985326080e-02  4.6857835748134243e-02  6.2459317842380201e-02  7.8045551389967313e-02  9.3612731235512892e-02  1.0915705687532237e-01  1.2467473338522769e-01  1.4016197234706371e-01  1.5561499277355603e-01  1.7103002203139503e-01  1.8640329676226988e-01  2.0173106380163880e-01  2.1700958109501015e-01  2.3223511861151147e-01  2.4740395925452294e-01  2.6251239976915330e-01  2.7755675164633631e-01  2.9253334202332754e-01  3.0743851458038085e-01  3.2226863043338660e-01  3.3702006902225307e-01  3.5168922899481408e-01  3.6627252908604757e-01  3.8076640899239017e-01  3.9516733024093426e-01  4.0947177705329507e-01  4.2367625720393803e-01  4.3777730287275513e-01  4.5177147149168378e-01  4.6565534658516017e-01  4.7942553860420301e-01  4.9307868575392305e-01  5.0661145481425740e-01  5.2002054195372704e-01  5.3330267353602012e-01  5.4645460691920356e-01  5.5947313124736686e-01  5.7235506823450721e-01  5.8509727294046221e-01  5.9769663453870159e-01  6.1015007707579139e-01  6.2245456022234369e-01  6.3460708001526933e-01  6.4660466959115237e-01  6.5844439991056758e-01  6.7012338047316289e-01  6.8163876002333423e-01  6.9298772724631785e-01  7.0416751145453371e-01  7.1517538326400754e-01  7.2600865526071257e-01  7.3666468265666130e-01  7.4714086393559420e-01  7.5743464148810136e-01  7.6754350223602696e-01  7.7746497824600080e-01  7.8719664733194894e-01  7.9673613364643570e-01  8.0608110826069290e-01  8.1522928973319431e-01  8.2417844466663670e-01  8.3292638825319187e-01  8.4147098480789650e-01  0.0000000000000000e+00  1.5622456992663038e-02  3.1241099986508807e-02  4.6852115913853139e-02  6.2451693569050774e-02  7.8036024538946550e-02  9.3601304132644836e-02  1.0914373231037029e-01  1.2465951461119303e-01  1.4014486307939186e-01  1.5559599718922934e-01  1.7100914476791296e-01  1.8638054291651690e-01  2.0170643892864001e-01  2.1698309120657511e-01  2.3220677017476654e-01  2.4737375919033236e-01  2.6248035545042964e-01  2.7752287089624039e-01  2.9249763311335858e-01  3.0740098622835710e-01  3.2222929180131693e-01  3.3697892971410032e-01  3.5164629905415035e-01  3.6622781899360213e-01  3.8071992966349089e-01  3.9511909302284265e-01  4.0942179372243609e-01  4.2362453996302513e-01  4.3772386434781085e-01  4.5171632472895767e-01  4.6559850504794337e-01  4.7936701616954158e-01  4.9301849670923015e-01  5.0654961385382502e-01  5.1995706417513876e-01  5.3323757443646524e-01  5.4638790239169355e-01  5.5940483757685533e-01  5.7228520209391442e-01  5.8502585138660446e-01  5.9762367500812685e-01  6.1007559738052264e-01  6.2237857854553036e-01  6.3452961490674809e-01  6.4652573996291840e-01  6.5836402503215763e-01  6.7004157996695080e-01  6.8155555385974043e-01  6.9290313573893381e-01  7.0408155525516281e-01  7.1508808335762297e-01  7.2592003296033447e-01  7.3657475959815333e-01  7.4704966207238133e-01  7.5734218308581047e-01  7.6744980986705102e-01  7.7737007478398790e-01  7.8710055594621831e-01  7.9663887779632092e-01  8.0598271168981495e-01  8.1512977646366480e-01  8.2407783899319309e-01  8.3282471473726649e-01  8.4136826827162003e-01  0.0000000000000000e+00  1.5616735761625434e-02  3.1229658921190100e-02  4.6834957807425345e-02  6.2428822610419488e-02  7.8007446311728304e-02  9.3567025613803950e-02  1.0910376186851552e-01  1.2461386200453448e-01  1.4009353945335870e-01  1.5553901507374879e-01  1.7094651807435127e-01  1.8631228693428312e-01  2.0163257032145324e-01  2.1690362800839641e-01  2.3212173178539605e-01  2.4728316637067327e-01  2.6238423031741953e-01  2.7742123691745191e-01  2.9239051510126995e-01  3.0728841033429471e-01  3.2211128550907081e-01  3.3685552183321421e-01  3.5151751971288847e-01  3.6609369963159366e-01  3.8058050302405455e-01  3.9497439314499283e-01  4.0927185593257270e-01  4.2346940086630902e-01  4.3756356181922762e-01  4.5155089790407055e-01  4.6542799431333909e-01  4.7919146315297062e-01  4.9283794426944361e-01  5.0636410607011162e-01  5.1976664633656333e-01  5.3304229303081208e-01  5.4618780509411713e-01  5.5919997323824122e-01  5.7207562072895257e-01  5.8481160416157918e-01  5.9740481422842551e-01  6.0985217647786572e-01  6.2215065206492692e-01  6.3429723849317954e-01  6.4628897034775334e-01  6.5812292001930184e-01  6.6979619841873517e-01  6.8130595568255070e-01  6.9264938186858527e-01  7.0382370764202340e-01  7.1482620495148952e-01  7.2565418769506396e-01  7.3630501237605450e-01  7.4677607874836982e-01  7.5706483045133099e-01  7.6716875563377152e-01  7.7708538756726864e-01  7.8681230524836010e-01  7.9634713398959756e-01  8.0568754599929282e-01  8.1483126094981384e-01  8.2377604653429470e-01  8.3251971901162125e-01  8.4106014373956017e-01  0.0000000000000000e+00  1.5607201928527060e-02  3.1210593582541971e-02  4.6806365617756453e-02  6.2390710550102875e-02  7.7959823685276888e-02  9.3509904047598971e-02  1.0903715530796813e-01  1.2453778671068116e-01  1.4000801399889140e-01  1.5544406033848057e-01  1.7084215724011895e-01  1.8619854547928757e-01  2.0150947601403948e-01  2.1677121090027415e-01  2.3198002420430311e-01  2.4713220291248320e-01  2.6222404783769554e-01  2.7725187452244904e-01  2.9221201413838799e-01  3.0710081438198367e-01  3.2191464036619194e-01  3.3664987550785885e-01  3.5130292241065758e-01  3.6587020374334084e-01  3.8034816311309555e-01  3.9473326593378461e-01  4.0902200028886571e-01  4.2321087778877520e-01  4.3729643442256860e-01  4.5127523140360909e-01  4.6514385600909769e-01  4.7889892241324106e-01  4.9253707251385198e-01  5.0605497675218192e-01  5.1944933492578504e-01  5.3271687699421510e-01  5.4585436387735975e-01  5.5885858824621426e-01  5.7172637530590575e-01  5.8445458357077373e-01  5.9704010563131815e-01  6.0947986891282979e-01  6.2177083642551489e-01  6.3391000750593229e-01  6.4589441854956275e-01  6.5772114373433088e-01  6.6938729573490152e-01  6.8089002642758012e-01  6.9222652758563996e-01  7.0339403156491220e-01  7.1438981197946416e-01  7.2521118436720966e-01  7.3585550684528034e-01  7.4632018075500417e-01  7.5660265129633064e-01  7.6670040815154850e-01  7.7661098609814361e-01  7.8633196561064789e-01  7.9586097345133189e-01  8.0519568324959634e-01  8.1433381606992261e-01  8.2327314096824200e-01  8.3201147553658816e-01  8.4054668643590191e-01  0.0000000000000000e+00  1.5593857820916534e-02  3.1183908625093407e-02  4.6766346325219497e-02  6.2337366692613846e-02  7.7893168285973535e-02  9.3429953379441058e-02  1.0894392888976463e-01  1.2443130730232504e-01  1.3988830759580306e-01  1.5531115616526150e-01  1.7069608774341691e-01  1.8603934631987532e-01  2.0133718605810846e-01  2.1658587220994616e-01  2.3178168202736127e-01  2.4692090567132538e-01  2.6199984711751273e-01  2.7701482505863156e-01  2.9196217380316275e-01  3.0683824417028521e-01  3.2163940438077171e-01  3.3636204094363525e-01  3.5100255953831133e-01  3.6555738589215941e-01  3.8002296665307084e-01  3.9439577025696843e-01  4.0867228778998710e-01  4.2284903384512529e-01  4.3692254737315661e-01  4.5088939252759580e-01  4.6474615950351100e-01  4.7848946536997911e-01  4.9211595489597931e-01  5.0562230136952535e-01  5.1900520740983369e-01  5.3226140577233250e-01  5.4538766014631224e-01  5.5838076594502428e-01  5.7123755108803531e-01  5.8395487677564473e-01  5.9652963825517802e-01  6.0895876557896722e-01  6.2123922435383505e-01  6.3336801648189822e-01  6.4534218089250972e-01  6.5715879426516255e-01  6.6881497174317561e-01  6.8030786763799100e-01  6.9163467612390683e-01  7.0279263192308095e-01  7.1377901098063201e-01  7.2459113112968054e-01  7.3522635274615933e-01  7.4568207939324127e-01  7.5595575845522156e-01  7.6604488176070262e-01  7.7594698619492786e-01  7.8565965430111551e-01  7.9518051487064667e-01  8.0450724352196168e-01  8.1363756326802450e-01  8.2256924507221618e-01  8.3130010839252244e-01  8.3982802171388204e-01  0.0000000000000000e+00  1.5576706696566347e-02  3.1149610563594065e-02  4.6714909699950811e-02  6.2268804061090165e-02  7.7807496386778030e-02  9.3327193128139196e-02  1.0882410537379800e-01  1.2429444977488653e-01  1.3973444946869518e-01  1.5514033500073937e-01  1.7050834524501793e-01  1.8583472832223782e-01  2.0111574251578201e-01  2.1634765718519561e-01  2.3152675367696846e-01  2.4664932623239083e-01  2.6171168289226149e-01  2.7671014639822644e-01  2.9164105509052884e-01  3.0650076380195085e-01  3.2128564474772858e-01  3.3599208841122419e-01  3.5061650442513720e-01  3.6515532244804133e-01  3.7960499303603229e-01  3.9396198850927344e-01  4.0822280381322806e-01  4.2238395737436857e-01  4.3644199195015249e-01  4.5039347547305864e-01  4.6423500188847722e-01  4.7796319198624931e-01  4.9157469422565242e-01  5.0506618555363125e-01  5.1843437221607303e-01  5.3167599056193082e-01  5.4478780783999714e-01  5.5776662298813340e-01  5.7060926741476337e-01  5.8331260577243971e-01  5.9587353672329391e-01  6.0828899369618328e-01  6.2055594563535055e-01  6.3267139774041259e-01  6.4463239219749791e-01  6.5643600890135467e-01  6.6807936616825192e-01  6.7955962143950255e-01  6.9087397197543177e-01  7.0201965553962697e-01  7.1299395107329722e-01  7.2379417935958190e-01  7.3441770367764148e-01  7.4486193044637683e-01  7.5512430985761325e-01  7.6520233649860092e-01  7.7509354996367463e-01  7.8479553545492664e-01  7.9430592437174530e-01  8.0362239488907472e-01  8.1274267252425514e-01  8.2166453069230505e-01  8.3038579124950995e-01  8.3890432502518553e-01  0.0000000000000000e+00  1.5555752742677528e-02  3.1107707771423746e-02  4.6652068299464729e-02  6.2185039394114981e-02  7.7702828903255833e-02  9.3201648381134941e-02  1.0867771401326110e-01  1.2412724754016811e-01  1.3954647717982285e-01  1.5493163854845154e-01  1.7027897557956029e-01  1.8558474144092460e-01  2.0084519944932494e-01  2.1605662398280426e-01  2.3121530139022517e-01  2.4631753089790456e-01  2.6135962551310454e-01  2.7633791292415871e-01  2.9124873639701448e-01  3.0608845566797216e-01  3.2085344783240322e-01  3.3554010822923047e-01  3.5014485132095424e-01  3.6466411156901007e-01  3.7909434430424382e-01  3.9343202659229193e-01  4.0767365809365486e-01  4.2181576191825521e-01  4.3585488547427054e-01  4.4978760131103385e-01  4.6361050795579684e-01  4.7732023074415053e-01  4.9091342264390114e-01  5.0438676507220015e-01  5.1773696870572838e-01  5.3096077428373756e-01  5.4405495340375187e-01  5.5701630930973611e-01  5.6984167767253768e-01  5.8252792736241255e-01  5.9507196121344497e-01  6.0747071677967712e-01  6.1972116708276070e-01  6.3182032135095034e-01  6.4376522574925743e-01  6.5555296410058739e-01  6.6718065859768139e-01  6.7864547050569279e-01  6.8994460085522247e-01  7.0107529112564815e-01  7.1203482391857653e-01  7.2282052362125826e-01  7.3342975705979918e-01  7.4385993414201357e-01  7.5410850848975608e-01  7.6417297806058515e-01  7.7405088575859970e-01  7.8373982003430454e-01  7.9323741547335469e-01  8.0254135337403876e-01  8.1164936231335527e-01  8.2055921870154902e-01  8.2926874732496791e-01  8.3777582187711097e-01  0.0000000000000000e+00  1.5531001074857399e-02  3.1058210478548197e-02  4.6577837465587926e-02  6.2086093141630390e-02  7.7579191388471913e-02  9.3053349788377718e-02  1.0850479054750509e-01  1.2392974141819742e-01  1.3932443661992452e-01  1.5468511775864374e-01  1.7000803474435827e-01  1.8528944670664743e-01  2.0052562290794687e-01  2.1571284365435447e-01  2.3084740120374039e-01  2.4592560067093888e-01  2.6094376092980182e-01  2.7589821551189259e-01  2.9078531350160203e-01  3.0560142042746691e-01  3.2034291914947405e-01  3.3500621074213327e-01  3.4958771537310335e-01  3.6408387317715674e-01  3.7849114512526966e-01  3.9280601388862529e-01  4.0702498469731913e-01  4.2114458619355682e-01  4.3516137127913662e-01  4.4907191795700879e-01  4.6287283016670722e-01  4.7656073861344872e-01  4.9013230159069821e-01  5.0358420579599827e-01  5.1691316713986468e-01  5.3011593154754932e-01  5.4318927575347653e-01  5.5613000808815627e-01  5.6893496925738529e-01  5.8160103311354305e-01  5.9412510741879576e-01  6.0650413460002250e-01  6.1873509249527692e-01  6.3081499509160566e-01  6.4274089325403971e-01  6.5450987544558437e-01  6.6611906843802815e-01  6.7756563801340153e-01  6.8884678965590918e-01  6.9995976923417225e-01  7.1090186367360897e-01  7.2167040161879403e-01  7.3226275408563024e-01  7.4267633510317865e-01  7.5290860234498536e-01  7.6295705774975486e-01  7.7281924813121505e-01  7.8249276577702798e-01  7.9197524903659799e-01  8.0126438289763524e-01  8.1035789955133264e-01  8.1925357894601825e-01  8.2794924932914993e-01  8.3644278777751713e-01  0.0000000000000000e+00  1.5502457735870665e-02  3.1001130769021574e-02  4.6492235320713858e-02  6.1971989459944844e-02  7.7436614026752282e-02  9.2882333554842031e-02  1.0830537719331405e-01  1.2370197962726147e-01  1.3906838199701832e-01  1.5440083281583120e-01  1.6969558888573089e-01  1.8494891621138052e-01  2.0015709091167694e-01  2.1531640012888295e-01  2.3042314293506821e-01  2.4547363123563762e-01  2.6046419066972698e-01  2.7539116150724513e-01  2.9025089954234501e-01  3.0503977698310392e-01  3.1975418333719691e-01  3.3439052629334692e-01  3.4894523259833582e-01  3.6341474892936299e-01  3.7779554276153815e-01  3.9208410323029685e-01  4.0627694198852726e-01  4.2037059405820054e-01  4.3436161867629508e-01  4.4824660013480994e-01  4.6202214861466062e-01  4.7568490101325483e-01  4.8923152176554585e-01  5.0265870365836285e-01  5.1596316863781944e-01  5.2914166860960354e-01  5.4219098623195372e-01  5.5510793570112560e-01  5.6788936352916153e-01  5.8053214931376862e-01  5.9303320650012048e-01  6.0538948313439556e-01  6.1759796260886735e-01  6.2965566439836640e-01  6.4155964478793248e-01  6.5330699759148059e-01  6.6489485486130429e-01  6.7632038758824464e-01  6.8758080639235108e-01  6.9867336220387011e-01  7.0959534693438964e-01  7.2034409413798117e-01  7.3091697966217328e-01  7.4131142228860203e-01  7.5152488436317733e-01  7.6155487241561526e-01  7.7139893776818302e-01  7.8105467713350851e-01  7.9051973320130842e-01  7.9979179521389165e-01  8.0886859953029822e-01  8.1774793017893355e-01  8.2642761939856735e-01  8.3490554816756102e-01  0.0000000000000000e+00  1.5470129694164177e-02  3.0936482578036328e-02  4.6395282763378495e-02  6.1842756205835750e-02  7.7275131626314983e-02  9.2688641431688604e-02  1.0807952263459843e-01  1.2344401777213496e-01  1.3877837582316818e-01  1.5407885312410544e-01  1.6934171428285347e-01  1.8456323309076042e-01  1.9973969343231662e-01  2.1486739019239068e-01  2.2994263016078023e-01  2.4496173293385629e-01  2.5992103181308096e-01  2.7481687470017935e-01  2.8964562498874702e-01  3.0440366245207506e-01  3.1908738412697679e-01  3.3369320519339951e-01  3.4821755984960662e-01  3.6265690218271729e-01  3.7700770703439013e-01  3.9126647086144017e-01  4.0542971259117827e-01  4.1949397447126557e-01  4.3345582291387386e-01  4.4731184933394696e-01  4.6105867098135761e-01  4.7469293176675781e-01  4.8821130308091948e-01  5.0161048460736701e-01  5.1488720512810182e-01  5.2803822332222372e-01  5.4106032855725272e-01  5.5395034167295898e-01  5.6670511575750893e-01  5.7932153691573907e-01  5.9179652502936841e-01  6.0412703450896532e-01  6.1631005503748493e-01  6.2834261230519417e-01  6.4022176873580716e-01  6.5194462420365251e-01  6.6350831674169697e-01  6.7491002324025406e-01  6.8614696013620546e-01  6.9721638409256870e-01  7.0811559266824209e-01  7.1884192497776900e-01  7.2939276234095296e-01  7.3976552892217218e-01  7.4995769235923193e-01  7.5996676438160549e-01  7.6979030141790883e-01  7.7942590519246358e-01  7.8887122331080239e-01  7.9812394983397128e-01  8.0718182584149267e-01  8.1604263998284743e-01  8.2470422901734464e-01  8.3316447834224638e-01  0.0000000000000000e+00  1.5434024842165661e-02  3.0864281688521098e-02  4.6287003463158220e-02  6.1698424929748634e-02  7.7094783610772086e-02  9.2472320706071365e-02  1.0782728201050952e-01  1.2315591883050513e-01  1.3845448889922210e-01  1.5371925729019040e-01  1.6894649732913500e-01  1.8413249150378957e-01  1.9927353237147413e-01  2.1436592346421385e-01  2.2940598019117875e-01  2.4439003073822357e-01  2.5931441696430874e-01  2.7417549529458279e-01  2.8896963760990940e-01  3.0369323213261989e-01  3.1834268430827756e-01  3.3291441768323643e-01  3.4740487477778093e-01  3.6181051795463376e-01  3.7612783028261920e-01  3.9035331639527154e-01  4.0448350334417843e-01  4.1851494144685158e-01  4.3244420512891735e-01  4.4626789376042147e-01  4.5998263248604404e-01  4.7358507304902220e-01  4.8707189460857886e-01  5.0043980455065840e-01  5.1368553929177130e-01  5.2680586507575078e-01  5.3979757876322898e-01  5.5265750861363605e-01  5.6538251505953652e-01  5.7796949147310872e-01  5.9041536492458391e-01  6.0271709693245779e-01  6.1487168420529215e-01  6.2687615937492580e-01  6.3872759172091420e-01  6.5042308788602365e-01  6.6195979258260218e-01  6.7333488928965790e-01  6.8454560094047134e-01  6.9558919060057756e-01  7.0646296213594784e-01  7.1716426087121399e-01  7.2769047423776767e-01  7.3803903241158286e-01  7.4820740894060023e-01  7.5819312136152539e-01  7.6799373180588604e-01  7.7760684759520260e-01  7.8703012182512644e-01  7.9626125393840319e-01  8.0529799028652049e-01  8.1413812467990376e-01  8.2277949892652624e-01  8.3122000335880042e-01  0.0000000000000000e+00  1.5394151994356923e-02  3.0784545727287557e-02  4.6167423854891240e-02  6.1539030868094556e-02  7.6895614009505023e-02  9.2233424189592988e-02  1.0754871690197808e-01  1.2283775313759666e-01  1.3809680029752741e-01  1.5332213310425163e-01  1.6851003451112656e-01  1.8365679660984871e-01  1.9875872153568683e-01  2.1381212237026220e-01  2.2881332404165725e-01  2.4375866422163120e-01  2.5864449421972546e-01  2.7346717987403873e-01  2.8822310243845572e-01  3.0290865946611195e-01  3.1752026568887953e-01  3.3205435389265903e-01  3.4650737578826368e-01  3.6087580287768295e-01  3.7515612731551518e-01  3.8934486276535757e-01  4.0343854525094491e-01  4.1743373400183031e-01  4.3132701229339926e-01  4.4511498828101459e-01  4.5879429582808612e-01  4.7236159532786520e-01  4.8581357451876123e-01  4.9914694929298326e-01  5.1235846449830758e-01  5.2544489473277656e-01  5.3840304513213422e-01  5.5122975214980652e-01  5.6392188432923585e-01  5.7647634306838147e-01  5.8889006337619820e-01  6.0116001462091084e-01  6.1328320126989866e-01  6.2525666362101229e-01  6.3707747852514218e-01  6.4874276009986398e-01  6.6024966043398459e-01  6.7159537028281979e-01  6.8277711975402988e-01  6.9379217898385093e-01  7.0463785880354934e-01  7.1531151139594684e-01  7.2581053094184389e-01  7.3613235425619594e-01  7.4627446141387632e-01  7.5623437636488078e-01  7.6600966753881938e-01  7.7559794843854912e-01  7.8499687822280362e-01  7.9420416227767565e-01  8.0321755277681439e-01  8.1203484923019953e-01  8.2065389902135955e-01  8.2907259793290289e-01  0.0000000000000000e+00  1.5350520885121894e-02  3.0697294160727060e-02  4.6036573132223889e-02  6.1364612934647622e-02  7.6677671446915466e-02  9.1972010205411722e-02  1.0724389531668013e-01  1.2248959836900034e-01  1.3770539734262621e-01  1.5288757751846349e-01  1.6803243238496535e-01  1.8313626454302379e-01  1.9819538660863678e-01  2.1320612211313014e-01  2.2816480640071468e-01  2.4306778752315913e-01  2.5791142713136123e-01  2.7269210136359834e-01  2.8740620173024128e-01  3.0205013599471536e-01  3.1662032905049337e-01  3.3111322379390673e-01  3.4552528199256105e-01  3.5985298514914504e-01  3.7409283536042121e-01  3.8824135617118855e-01  4.0229509342300940e-01  4.1625061609749259e-01  4.3010451715392739e-01  4.4385341436106385e-01  4.5749395112283564e-01  4.7102279729782509e-01  4.8443665001226949e-01  4.9773223446641035e-01  5.1090630473398857e-01  5.2395564455469079e-01  5.3687706811935410e-01  5.4966742084773401e-01  5.6232358015865136e-01  5.7484245623232533e-01  5.8722099276470829e-01  5.9945616771363908e-01  6.1154499403663087e-01  6.2348452042011504e-01  6.3527183199996196e-01  6.4690405107310323e-01  6.5837833780008137e-01  6.6969189089835668e-01  6.8084194832619893e-01  6.9182578795700189e-01  7.0264072824384949e-01  7.1328412887417936e-01  7.2375339141437489e-01  7.3404595994413746e-01  7.4415932168047649e-01  7.5409100759117020e-01  7.6383859299754375e-01  7.7339969816642029e-01  7.8277198889109822e-01  7.9195317706121460e-01  8.0094102122135458e-01  8.0973332711827017e-01  8.1832794823657595e-01  8.2672278632279017e-01  0.0000000000000000e+00  1.5303142166370135e-02  3.0602548290058224e-02  4.5894483240483445e-02  6.1175213711044792e-02  7.6441009130554322e-02  9.1688142574002582e-02  1.0691289167243398e-01  1.2211153952170967e-01  1.3728037558993644e-01  1.5241569662333990e-01  1.6751380755036074e-01  1.8257102238375342e-01  1.9758366512046710e-01  2.1254807063908920e-01  2.2746058559463206e-01  2.4231756931044468e-01  2.5711539466703198e-01  2.7185044898756372e-01  2.8651913491985792e-01  3.0111787131462270e-01  3.1564309409974250e-01  3.3009125715039533e-01  3.4445883315478815e-01  3.5874231447529931e-01  3.7293821400481836e-01  3.8704306601807303e-01  4.0105342701773616e-01  4.1496587657510653e-01  4.2877701816515712e-01  4.4248347999574850e-01  4.5608191583080276e-01  4.6956900580723998e-01  4.8294145724547416e-01  4.9619600545327480e-01  5.0932941452279368e-01  5.2233847812056589e-01  5.3522002027029059e-01  5.4797089612819894e-01  5.6058799275082338e-01  5.7306822985497829e-01  5.8540856056976620e-01  5.9760597218042832e-01  6.0965748686385546e-01  6.2156016241558054e-01  6.3331109296807597e-01  6.4490740970017946e-01  6.5634628153747521e-01  6.6762491584346073e-01  6.7874055910132836e-01  6.8969049758619783e-01  7.0047205802763157e-01  7.1108260826227776e-01  7.2151955787647271e-01  7.3178035883865544e-01  7.4186250612143112e-01  7.5176353831313936e-01  7.6148103821877111e-01  7.7101263345009297e-01  7.8035599700483127e-01  7.8950884783477704e-01  7.9846895140267038e-01  8.0723412022773100e-01  8.1580221441970058e-01  8.2417114220126586e-01  0.0000000000000000e+00  1.5252027404936329e-02  3.0500331246126524e-02  4.5741188868879130e-02  6.0970879436390145e-02  7.6185684838131928e-02  9.1381890597576579e-02  1.0655578677903214e-01  1.2170366889337010e-01  1.3682183880242338e-01  1.5190660562183367e-01  1.6695428662212800e-01  1.8196120812780409e-01  1.9692370641420584e-01  2.1183812860196899e-01  2.2670083354881926e-01  2.4150819273850493e-01  2.5625659116664723e-01  2.7094242822329156e-01  2.8556211857194519e-01  3.0011209302488512e-01  3.1458879941452467e-01  3.2898870346062392e-01  3.4330828963313365e-01  3.5754406201046146e-01  3.7169254513295114e-01  3.8575028485136603e-01  3.9971384917017017e-01  4.1357982908540081e-01  4.2734483941692758e-01  4.4100551963489615e-01  4.5455853468015284e-01  4.6800057577845194e-01  4.8132836124824524e-01  4.9453863730185754e-01  5.0762817883985234e-01  5.2059379023839336e-01  5.3343230612941084e-01  5.4614059217338007e-01  5.5871554582452576e-01  5.7115409708826426e-01  5.8345320927069833e-01  5.9560987971998258e-01  6.0762114055937799e-01  6.1948405941181639e-01  6.3119574011579793e-01  6.4275332343244806e-01  6.5415398774355871e-01  6.6539494974044711e-01  6.7647346510345940e-01  6.8738682917195837e-01  6.9813237760462588e-01  7.0870748702992514e-01  7.1910957568655820e-01  7.2933610405376659e-01  7.3938457547131831e-01  7.4925253674903214e-01  7.5893757876568857e-01  7.6843733705718220e-01  7.7774949239377178e-01  7.8687177134628705e-01  7.9580194684115357e-01  8.0453783870410089e-01  8.1307731419242091e-01  8.2141828851564669e-01  0.0000000000000000e+00  1.5197189079756385e-02  3.0390667983757239e-02  4.5576727442033220e-02  6.0751659995966260e-02  7.5911760903412409e-02  9.1053329043161463e-02  1.0617266781851270e-01  1.2126608605974584e-01  1.3632989892526734e-01  1.5136042880121142e-01  1.6635400619927704e-01  1.8130697065258042e-01  1.9621567160930595e-01  2.1107646932393587e-01  2.2588573574584189e-01  2.4063985540502178e-01  2.5533522629476457e-01  2.6996826075102864e-01  2.8453538632831876e-01  2.9903304667184716e-01  3.1345770238576648e-01  3.2780583189726292e-01  3.4207393231629729e-01  3.5625852029078547e-01  3.7035613285700908e-01  3.8436332828504827e-01  3.9827668691903062e-01  4.1209281201199127e-01  4.2580833055513972e-01  4.3941989410133192e-01  4.5292417958254522e-01  4.6631789012115810e-01  4.7959775583483522e-01  4.9276053463482272e-01  5.0580301301745734e-01  5.1872200684869707e-01  5.3151436214148284e-01  5.4417695582573766e-01  5.5670669651082083e-01  5.6910052524024590e-01  5.8135541623848064e-01  5.9346837764964799e-01  6.0543645226794351e-01  6.1725671825959549e-01  6.2892628987618837e-01  6.4044231815917729e-01  6.5180199163541985e-01  6.6300253700355760e-01  6.7404121981107690e-01  6.8491534512188768e-01  6.9562225817425172e-01  7.0615934502890643e-01  7.1652403320721891e-01  7.2671379231922117e-01  7.3672613468136749e-01  7.4655861592386741e-01  7.5620883558744323e-01  7.6567443770936749e-01  7.7495311139863798e-01  7.8404259140014820e-01  7.9294065864771746e-01  8.0164514080584348e-01  8.1015391280004689e-01  8.1846489733567851e-01  0.0000000000000000e+00  1.5138640578820910e-02  3.0273585275663085e-02  4.5401139110844368e-02  6.0517608909055484e-02  7.5619304200995802e-02  9.0702538124348517e-02  1.0576362832387519e-01  1.2079889785040993e-01  1.3580467605853391e-01  1.5077729950271065e-01  1.6571311283166387e-01  1.8060846968077890e-01  1.9545973356231042e-01  2.1026327875317882e-01  2.2501549118013839e-01  2.3971276930210150e-01  2.5435152498940322e-01  2.6892818439979171e-01  2.8343918885093061e-01  2.9788099568920018e-01  3.1225007915458541e-01  3.2654293124143985e-01  3.4075606255491481e-01  3.5488600316284491e-01  3.6892930344288255e-01  3.8288253492467372e-01  3.9674229112686932e-01  4.1050518838876959e-01  4.2416786669639556e-01  4.3772699050278885e-01  4.5117924954233712e-01  4.6452135963892854e-01  4.7775006350773558e-01  4.9086213155043501e-01  5.0385436264366756e-01  5.1672358492054660e-01  5.2946665654502401e-01  5.4208046647892361e-01  5.5456193524145769e-01  5.6690801566103732e-01  5.7911569361919557e-01  5.9118198878644157e-01  6.0310395534986538e-01  6.1487868273231550e-01  6.2650329630297474e-01  6.3797495807916027e-01  6.4929086741917608e-01  6.6044826170604976e-01  6.7144441702198554e-01  6.8227664881337047e-01  6.9294231254616800e-01  7.0343880435154560e-01  7.1376356166156929e-01  7.2391406383481993e-01  7.3388783277177028e-01  7.4368243351977859e-01  7.5329547486754633e-01  7.6272460992889901e-01  7.7196753671574392e-01  7.8102199870006839e-01  7.8988578536483811