<?xml version="1.0"?>
<VTKFile type="UnstructuredGrid"  version="0.1"  >
<UnstructuredGrid>
<Piece  NumberOfPoints="81" NumberOfCells="128">
<Points>
<DataArray  type="Float64"  NumberOfComponents="3"  format="ascii">0 0 0  0.125 0 0  0.25 0 0  0.375 0 0  0.5 0 0  0.625 0 0  0.75 0 0  0.875 0 0  1 0 0  0 0.125 0  0.125 0.125 0  0.25 0.125 0  0.375 0.125 0  0.5 0.125 0  0.625 0.125 0  0.75 0.125 0  0.875 0.125 0  1 0.125 0  0 0.25 0  0.125 0.25 0  0.25 0.25 0  0.375 0.25 0  0.5 0.25 0  0.625 0.25 0  0.75 0.25 0  0.875 0.25 0  1 0.25 0  0 0.375 0  0.125 0.375 0  0.25 0.375 0  0.375 0.375 0  0.5 0.375 0  0.625 0.375 0  0.75 0.375 0  0.875 0.375 0  1 0.375 0  0 0.5 0  0.125 0.5 0  0.25 0.5 0  0.375 0.5 0  0.5 0.5 0  0.625 0.5 0  0.75 0.5 0  0.875 0.5 0  1 0.5 0  0 0.625 0  0.125 0.625 0  0.25 0.625 0  0.375 0.625 0  0.5 0.625 0  0.625 0.625 0  0.75 0.625 0  0.875 0.625 0  1 0.625 0  0 0.75 0  0.125 0.75 0  0.25 0.75 0  0.375 0.75 0  0.5 0.75 0  0.625 0.75 0  0.75 0.75 0  0.875 0.75 0  1 0.75 0  0 0.875 0  0.125 0.875 0  0.25 0.875 0  0.375 0.875 0  0.5 0.875 0  0.625 0.875 0  0.75 0.875 0  0.875 0.875 0  1 0.875 0  0 1 0  0.125 1 0  0.25 1 0  0.375 1 0  0.5 1 0  0.625 1 0  0.75 1 0  0.875 1 0  1 1 0  </DataArray>
</Points>
<Cells>
<DataArray  type="UInt32"  Name="connectivity"  format="ascii">0 1 10  0 9 10  1 2 11  1 10 11  2 3 12  2 11 12  3 4 13  3 12 13  4 5 14  4 13 14  5 6 15  5 14 15  6 7 16  6 15 16  7 8 17  7 16 17  9 10 19  9 18 19  10 11 20  10 19 20  11 12 21  11 20 21  12 13 22  12 21 22  13 14 23  13 22 23  14 15 24  14 23 24  15 16 25  15 24 25  16 17 26  16 25 26  18 19 28  18 27 28  19 20 29  19 28 29  20 21 30  20 29 30  21 22 31  21 30 31  22 23 32  22 31 32  23 24 33  23 32 33  24 25 34  24 33 34  25 26 35  25 34 35  27 28 37  27 36 37  28 29 38  28 37 38  29 30 39  29 38 39  30 31 40  30 39 40  31 32 41  31 40 41  32 33 42  32 41 42  33 34 43  33 42 43  34 35 44  34 43 44  36 37 46  36 45 46  37 38 47  37 46 47  38 39 48  38 47 48  39 40 49  39 48 49  40 41 50  40 49 50  41 42 51  41 50 51  42 43 52  42 51 52  43 44 53  43 52 53  45 46 55  45 54 55  46 47 56  46 55 56  47 48 57  47 56 57  48 49 58  48 57 58  49 50 59  49 58 59  50 51 60  50 59 60  51 52 61  51 60 61  52 53 62  52 61 62  54 55 64  54 63 64  55 56 65  55 64 65  56 57 66  56 65 66  57 58 67  57 66 67  58 59 68  58 67 68  59 60 69  59 68 69  60 61 70  60 69 70  61 62 71  61 70 71  63 64 73  63 72 73  64 65 74  64 73 74  65 66 75  65 74 75  66 67 76  66 75 76  67 68 77  67 76 77  68 69 78  68 77 78  69 70 79  69 78 79  70 71 80  70 79 80  </DataArray>
<DataArray  type="UInt32"  Name="offsets"  format="ascii">3 6 9 12 15 18 21 24 27 30 33 36 39 42 45 48 51 54 57 60 63 66 69 72 75 78 81 84 87 90 93 96 99 102 105 108 111 114 117 120 123 126 129 132 135 138 141 144 147 150 153 156 159 162 165 168 171 174 177 180 183 186 189 192 195 198 201 204 207 210 213 216 219 222 225 228 231 234 237 240 243 246 249 252 255 258 261 264 267 270 273 276 279 282 285 288 291 294 297 300 303 306 309 312 315 318 321 324 327 330 333 336 339 342 345 348 351 354 357 360 363 366 369 372 375 378 381 384 </DataArray>
<DataArray  type="UInt8"  Name="types"  format="ascii">5 5 5 5 5 5 5 5 5 5 5 5 5 5 5 5 5 5 5 5 5 5 5 5 5 5 5 5 5 5 5 5 5 5 5 5 5 5 5 5 5 5 5 5 5 5 5 5 5 5 5 5 5 5 5 5 5 5 5 5 5 5 5 5 5 5 5 5 5 5 5 5 5 5 5 5 5 5 5 5 5 5 5 5 5 5 5 5 5 5 5 5 5 5 5 5 5 5 5 5 5 5 5 5 5 5 5 5 5 5 5 5 5 5 5 5 5 5 5 5 5 5 5 5 5 5 5 5 </DataArray>
</Cells>
<PointData  Scalars="f_1530"> 
<DataArray  type="Float64"  Name="f_1530"  format="ascii">0.0000000000000000e+00  1.2467473338522769e-01  2.4740395925452294e-01  3.6627252908604757e-01  4.7942553860420301e-01  5.8509727294046221e-01  6.8163876002333423e-01  7.6754350223602696e-01  8.4147098480789650e-01  0.0000000000000000e+00  1.4127498127198976e-01  2.8034541371187077e-01  4.1504114973472894e-01  5.4326030743008269e-01  6.6300206972610343e-01  7.7239790647083084e-01  8.6974073222024806e-01  9.5351154473568689e-01  0.0000000000000000e+00  1.6008552648540006e-01  3.1767297187198579e-01  4.7030323678098512e-01  6.1559457697700659e-01  7.5127976969023813e-01  8.7524149286947706e-01  9.8554536528458292e-01  1.0804701318986034e+00  0.0000000000000000e+00  1.8140066669531951e-01  3.5997063665788215e-01  5.3292338523069460e-01  6.9756004261782234e-01  8.5131150884489493e-01  9.9177854370494767e-01  1.1167692060994054e+00  1.2243330585458123e+00  0.0000000000000000e+00  2.0555388485109230e-01  4.0790017007835982e-01  6.0388130957729802e-01  7.9043908321361489e-01  9.6466231932557855e-01  1.1238323225841313e+00  1.2654652983242090e+00  1.3873511113297634e+00  0.0000000000000000e+00  2.3292306664089177e-01  4.6221144672998871e-01  6.8428717178348442e-01  8.9568482438706809e-01  1.0931056148756362e+00  1.2734688578427069e+00  1.4339600452058272e+00  1.5720747656638636e+00  0.0000000000000000e+00  2.6393641264770784e-01  5.2375418585186662e-01  7.7539895015992910e-01  1.0149438731896383e+00  1.2386509365349891e+00  1.4430292662932416e+00  1.6248896069846197e+00  1.7813940888174007e+00  0.0000000000000000e+00  2.9907913769975764e-01  5.9349124548531762e-01  8.7864212088336491e-01  1.1500820798544917e+00  1.4035753926243988e+00  1.6351663808303440e+00  1.8412411445589851e+00  2.0185839560458261e+00  0.0000000000000000e+00  3.3890106222904071e-01  6.7251368673039169e-01  9.9563196007834021e-01  1.3032137296869954e+00  1.5904592849150005e+00  1.8528862549447853e+00  2.0863995546800065e+00  2.2873552871788423e+00  </DataArray> 
</PointData> 
</Piece>
</UnstructuredGrid>
</VTKFile>