<?xml version="1.0"?>
<VTKFile type="UnstructuredGrid"  version="0.1"  >
<UnstructuredGrid>
<Piece  NumberOfPoints="16641" NumberOfCells="32768">
<Points>
<DataArray  type="Float64"  NumberOfComponents="3"  format="ascii">0 0 0  0.0078125 0 0  0.015625 0 0  0.0234375 0 0  0.03125 0 0  0.0390625 0 0  0.046875 0 0  0.0546875 0 0  0.0625 0 0  0.0703125 0 0  0.078125 0 0  0.0859375 0 0  0.09375 0 0  0.1015625 0 0  0.109375 0 0  0.1171875 0 0  0.125 0 0  0.1328125 0 0  0.140625 0 0  0.1484375 0 0  0.15625 0 0  0.1640625 0 0  0.171875 0 0  0.1796875 0 0  0.1875 0 0  0.1953125 0 0  0.203125 0 0  0.2109375 0 0  0.21875 0 0  0.2265625 0 0  0.234375 0 0  0.2421875 0 0  0.25 0 0  0.2578125 0 0  0.265625 0 0  0.2734375 0 0  0.28125 0 0  0.2890625 0 0  0.296875 0 0  0.3046875 0 0  0.3125 0 0  0.3203125 0 0  0.328125 0 0  0.3359375 0 0  0.34375 0 0  0.3515625 0 0  0.359375 0 0  0.3671875 0 0  0.375 0 0  0.3828125 0 0  0.390625 0 0  0.3984375 0 0  0.40625 0 0  0.4140625 0 0  0.421875 0 0  0.4296875 0 0  0.4375 0 0  0.4453125 0 0  0.453125 0 0  0.4609375 0 0  0.46875 0 0  0.4765625 0 0  0.484375 0 0  0.4921875 0 0  0.5 0 0  0.5078125 0 0  0.515625 0 0  0.5234375 0 0  0.53125 0 0  0.5390625 0 0  0.546875 0 0  0.5546875 0 0  0.5625 0 0  0.5703125 0 0  0.578125 0 0  0.5859375 0 0  0.59375 0 0  0.6015625 0 0  0.609375 0 0  0.6171875 0 0  0.625 0 0  0.6328125 0 0  0.640625 0 0  0.6484375 0 0  0.65625 0 0  0.6640625 0 0  0.671875 0 0  0.6796875 0 0  0.6875 0 0  0.6953125 0 0  0.703125 0 0  0.7109375 0 0  0.71875 0 0  0.7265625 0 0  0.734375 0 0  0.7421875 0 0  0.75 0 0  0.7578125 0 0  0.765625 0 0  0.7734375 0 0  0.78125 0 0  0.7890625 0 0  0.796875 0 0  0.8046875 0 0  0.8125 0 0  0.8203125 0 0  0.828125 0 0  0.8359375 0 0  0.84375 0 0  0.8515625 0 0  0.859375 0 0  0.8671875 0 0  0.875 0 0  0.8828125 0 0  0.890625 0 0  0.8984375 0 0  0.90625 0 0  0.9140625 0 0  0.921875 0 0  0.9296875 0 0  0.9375 0 0  0.9453125 0 0  0.953125 0 0  0.9609375 0 0  0.96875 0 0  0.9765625 0 0  0.984375 0 0  0.9921875 0 0  1 0 0  0 0.0078125 0  0.0078125 0.0078125 0  0.015625 0.0078125 0  0.0234375 0.0078125 0  0.03125 0.0078125 0  0.0390625 0.0078125 0  0.046875 0.0078125 0  0.0546875 0.0078125 0  0.0625 0.0078125 0  0.0703125 0.0078125 0  0.078125 0.0078125 0  0.0859375 0.0078125 0  0.09375 0.0078125 0  0.1015625 0.0078125 0  0.109375 0.0078125 0  0.1171875 0.0078125 0  0.125 0.0078125 0  0.1328125 0.0078125 0  0.140625 0.0078125 0  0.1484375 0.0078125 0  0.15625 0.0078125 0  0.1640625 0.0078125 0  0.171875 0.0078125 0  0.1796875 0.0078125 0  0.1875 0.0078125 0  0.1953125 0.0078125 0  0.203125 0.0078125 0  0.2109375 0.0078125 0  0.21875 0.0078125 0  0.2265625 0.0078125 0  0.234375 0.0078125 0  0.2421875 0.0078125 0  0.25 0.0078125 0  0.2578125 0.0078125 0  0.265625 0.0078125 0  0.2734375 0.0078125 0  0.28125 0.0078125 0  0.2890625 0.0078125 0  0.296875 0.0078125 0  0.3046875 0.0078125 0  0.3125 0.0078125 0  0.3203125 0.0078125 0  0.328125 0.0078125 0  0.3359375 0.0078125 0  0.34375 0.0078125 0  0.3515625 0.0078125 0  0.359375 0.0078125 0  0.3671875 0.0078125 0  0.375 0.0078125 0  0.3828125 0.0078125 0  0.390625 0.0078125 0  0.3984375 0.0078125 0  0.40625 0.0078125 0  0.4140625 0.0078125 0  0.421875 0.0078125 0  0.4296875 0.0078125 0  0.4375 0.0078125 0  0.4453125 0.0078125 0  0.453125 0.0078125 0  0.4609375 0.0078125 0  0.46875 0.0078125 0  0.4765625 0.0078125 0  0.484375 0.0078125 0  0.4921875 0.0078125 0  0.5 0.0078125 0  0.5078125 0.0078125 0  0.515625 0.0078125 0  0.5234375 0.0078125 0  0.53125 0.0078125 0  0.5390625 0.0078125 0  0.546875 0.0078125 0  0.5546875 0.0078125 0  0.5625 0.0078125 0  0.5703125 0.0078125 0  0.578125 0.0078125 0  0.5859375 0.0078125 0  0.59375 0.0078125 0  0.6015625 0.0078125 0  0.609375 0.0078125 0  0.6171875 0.0078125 0  0.625 0.0078125 0  0.6328125 0.0078125 0  0.640625 0.0078125 0  0.6484375 0.0078125 0  0.65625 0.0078125 0  0.6640625 0.0078125 0  0.671875 0.0078125 0  0.6796875 0.0078125 0  0.6875 0.0078125 0  0.6953125 0.0078125 0  0.703125 0.0078125 0  0.7109375 0.0078125 0  0.71875 0.0078125 0  0.7265625 0.0078125 0  0.734375 0.0078125 0  0.7421875 0.0078125 0  0.75 0.0078125 0  0.7578125 0.0078125 0  0.765625 0.0078125 0  0.7734375 0.0078125 0  0.78125 0.0078125 0  0.7890625 0.0078125 0  0.796875 0.0078125 0  0.8046875 0.0078125 0  0.8125 0.0078125 0  0.8203125 0.0078125 0  0.828125 0.0078125 0  0.8359375 0.0078125 0  0.84375 0.0078125 0  0.8515625 0.0078125 0  0.859375 0.0078125 0  0.8671875 0.0078125 0  0.875 0.0078125 0  0.8828125 0.0078125 0  0.890625 0.0078125 0  0.8984375 0.0078125 0  0.90625 0.0078125 0  0.9140625 0.0078125 0  0.921875 0.0078125 0  0.9296875 0.0078125 0  0.9375 0.0078125 0  0.9453125 0.0078125 0  0.953125 0.0078125 0  0.9609375 0.0078125 0  0.96875 0.0078125 0  0.9765625 0.0078125 0  0.984375 0.0078125 0  0.9921875 0.0078125 0  1 0.0078125 0  0 0.015625 0  0.0078125 0.015625 0  0.015625 0.015625 0  0.0234375 0.015625 0  0.03125 0.015625 0  0.0390625 0.015625 0  0.046875 0.015625 0  0.0546875 0.015625 0  0.0625 0.015625 0  0.0703125 0.015625 0  0.078125 0.015625 0  0.0859375 0.015625 0  0.09375 0.015625 0  0.1015625 0.015625 0  0.109375 0.015625 0  0.1171875 0.015625 0  0.125 0.015625 0  0.1328125 0.015625 0  0.140625 0.015625 0  0.1484375 0.015625 0  0.15625 0.015625 0  0.1640625 0.015625 0  0.171875 0.015625 0  0.1796875 0.015625 0  0.1875 0.015625 0  0.1953125 0.015625 0  0.203125 0.015625 0  0.2109375 0.015625 0  0.21875 0.015625 0  0.2265625 0.015625 0  0.234375 0.015625 0  0.2421875 0.015625 0  0.25 0.015625 0  0.2578125 0.015625 0  0.265625 0.015625 0  0.2734375 0.015625 0  0.28125 0.015625 0  0.2890625 0.015625 0  0.296875 0.015625 0  0.3046875 0.015625 0  0.3125 0.015625 0  0.3203125 0.015625 0  0.328125 0.015625 0  0.3359375 0.015625 0  0.34375 0.015625 0  0.3515625 0.015625 0  0.359375 0.015625 0  0.3671875 0.015625 0  0.375 0.015625 0  0.3828125 0.015625 0  0.390625 0.015625 0  0.3984375 0.015625 0  0.40625 0.015625 0  0.4140625 0.015625 0  0.421875 0.015625 0  0.4296875 0.015625 0  0.4375 0.015625 0  0.4453125 0.015625 0  0.453125 0.015625 0  0.4609375 0.015625 0  0.46875 0.015625 0  0.4765625 0.015625 0  0.484375 0.015625 0  0.4921875 0.015625 0  0.5 0.015625 0  0.5078125 0.015625 0  0.515625 0.015625 0  0.5234375 0.015625 0  0.53125 0.015625 0  0.5390625 0.015625 0  0.546875 0.015625 0  0.5546875 0.015625 0  0.5625 0.015625 0  0.5703125 0.015625 0  0.578125 0.015625 0  0.5859375 0.015625 0  0.59375 0.015625 0  0.6015625 0.015625 0  0.609375 0.015625 0  0.6171875 0.015625 0  0.625 0.015625 0  0.6328125 0.015625 0  0.640625 0.015625 0  0.6484375 0.015625 0  0.65625 0.015625 0  0.6640625 0.015625 0  0.671875 0.015625 0  0.6796875 0.015625 0  0.6875 0.015625 0  0.6953125 0.015625 0  0.703125 0.015625 0  0.7109375 0.015625 0  0.71875 0.015625 0  0.7265625 0.015625 0  0.734375 0.015625 0  0.7421875 0.015625 0  0.75 0.015625 0  0.7578125 0.015625 0  0.765625 0.015625 0  0.7734375 0.015625 0  0.78125 0.015625 0  0.7890625 0.015625 0  0.796875 0.015625 0  0.8046875 0.015625 0  0.8125 0.015625 0  0.8203125 0.015625 0  0.828125 0.015625 0  0.8359375 0.015625 0  0.84375 0.015625 0  0.8515625 0.015625 0  0.859375 0.015625 0  0.8671875 0.015625 0  0.875 0.015625 0  0.8828125 0.015625 0  0.890625 0.015625 0  0.8984375 0.015625 0  0.90625 0.015625 0  0.9140625 0.015625 0  0.921875 0.015625 0  0.9296875 0.015625 0  0.9375 0.015625 0  0.9453125 0.015625 0  0.953125 0.015625 0  0.9609375 0.015625 0  0.96875 0.015625 0  0.9765625 0.015625 0  0.984375 0.015625 0  0.9921875 0.015625 0  1 0.015625 0  0 0.0234375 0  0.0078125 0.0234375 0  0.015625 0.0234375 0  0.0234375 0.0234375 0  0.03125 0.0234375 0  0.0390625 0.0234375 0  0.046875 0.0234375 0  0.0546875 0.0234375 0  0.0625 0.0234375 0  0.0703125 0.0234375 0  0.078125 0.0234375 0  0.0859375 0.0234375 0  0.09375 0.0234375 0  0.1015625 0.0234375 0  0.109375 0.0234375 0  0.1171875 0.0234375 0  0.125 0.0234375 0  0.1328125 0.0234375 0  0.140625 0.0234375 0  0.1484375 0.0234375 0  0.15625 0.0234375 0  0.1640625 0.0234375 0  0.171875 0.0234375 0  0.1796875 0.0234375 0  0.1875 0.0234375 0  0.1953125 0.0234375 0  0.203125 0.0234375 0  0.2109375 0.0234375 0  0.21875 0.0234375 0  0.2265625 0.0234375 0  0.234375 0.0234375 0  0.2421875 0.0234375 0  0.25 0.0234375 0  0.2578125 0.0234375 0  0.265625 0.0234375 0  0.2734375 0.0234375 0  0.28125 0.0234375 0  0.2890625 0.0234375 0  0.296875 0.0234375 0  0.3046875 0.0234375 0  0.3125 0.0234375 0  0.3203125 0.0234375 0  0.328125 0.0234375 0  0.3359375 0.0234375 0  0.34375 0.0234375 0  0.3515625 0.0234375 0  0.359375 0.0234375 0  0.3671875 0.0234375 0  0.375 0.0234375 0  0.3828125 0.0234375 0  0.390625 0.0234375 0  0.3984375 0.0234375 0  0.40625 0.0234375 0  0.4140625 0.0234375 0  0.421875 0.0234375 0  0.4296875 0.0234375 0  0.4375 0.0234375 0  0.4453125 0.0234375 0  0.453125 0.0234375 0  0.4609375 0.0234375 0  0.46875 0.0234375 0  0.4765625 0.0234375 0  0.484375 0.0234375 0  0.4921875 0.0234375 0  0.5 0.0234375 0  0.5078125 0.0234375 0  0.515625 0.0234375 0  0.5234375 0.0234375 0  0.53125 0.0234375 0  0.5390625 0.0234375 0  0.546875 0.0234375 0  0.5546875 0.0234375 0  0.5625 0.0234375 0  0.5703125 0.0234375 0  0.578125 0.0234375 0  0.5859375 0.0234375 0  0.59375 0.0234375 0  0.6015625 0.0234375 0  0.609375 0.0234375 0  0.6171875 0.0234375 0  0.625 0.0234375 0  0.6328125 0.0234375 0  0.640625 0.0234375 0  0.6484375 0.0234375 0  0.65625 0.0234375 0  0.6640625 0.0234375 0  0.671875 0.0234375 0  0.6796875 0.0234375 0  0.6875 0.0234375 0  0.6953125 0.0234375 0  0.703125 0.0234375 0  0.7109375 0.0234375 0  0.71875 0.0234375 0  0.7265625 0.0234375 0  0.734375 0.0234375 0  0.7421875 0.0234375 0  0.75 0.0234375 0  0.7578125 0.0234375 0  0.765625 0.0234375 0  0.7734375 0.0234375 0  0.78125 0.0234375 0  0.7890625 0.0234375 0  0.796875 0.0234375 0  0.8046875 0.0234375 0  0.8125 0.0234375 0  0.8203125 0.0234375 0  0.828125 0.0234375 0  0.8359375 0.0234375 0  0.84375 0.0234375 0  0.8515625 0.0234375 0  0.859375 0.0234375 0  0.8671
[...]
<PointData  Scalars="f_1567"> 
<DataArray  type="Float64"  Name="f_1567"  format="ascii">0.0000000000000000e+00  7.8124205273828315e-03  1.5624364224883372e-02  2.3435354291722572e-02  3.1244913985326080e-02  3.9052566650422151e-02  4.6857835748134243e-02  5.4660244885066461e-02  6.2459317842380201e-02  7.0254578604860049e-02  7.8045551389967313e-02  8.5831760676879351e-02  9.3612731235512892e-02  1.0138798815552964e-01  1.0915705687532237e-01  1.1691946321097965e-01  1.2467473338522769e-01  1.3242239405634718e-01  1.4016197234706371e-01  1.4789299587340962e-01  1.5561499277355603e-01  1.6332749173661285e-01  1.7103002203139503e-01  1.7872211353515366e-01  1.8640329676226988e-01  1.9407310289290980e-01  2.0173106380163880e-01  2.0937671208599365e-01  2.1700958109501015e-01  2.2462920495770530e-01  2.3223511861151147e-01  2.3982685783066157e-01  2.4740395925452294e-01  2.5496596041587849e-01  2.6251239976915330e-01  2.7004281671858504e-01  2.7755675164633631e-01  2.8505374594054744e-01  2.9253334202332754e-01  2.9999508337868303e-01  3.0743851458038085e-01  3.1486318131974522e-01  3.2226863043338660e-01  3.2965440993086015e-01  3.3702006902225307e-01  3.4436515814569840e-01  3.5168922899481408e-01  3.5899183454606504e-01  3.6627252908604757e-01  3.7353086823869297e-01  3.8076640899239017e-01  3.8797870972702503e-01  3.9516733024093426e-01  4.0233183177777310e-01  4.0947177705329507e-01  4.1658673028204113e-01  4.2367625720393803e-01  4.3073992511080322e-01  4.3777730287275513e-01  4.4478796096452722e-01  4.5177147149168378e-01  4.5872740821673658e-01  4.6565534658516017e-01  4.7255486375130445e-01  4.7942553860420301e-01  4.8626695179327556e-01  4.9307868575392305e-01  4.9986032473301345e-01  5.0661145481425740e-01  5.1333166394347118e-01  5.2002054195372704e-01  5.2667768059038678e-01  5.3330267353602012e-01  5.3989511643520438e-01  5.4645460691920356e-01  5.5298074463052738e-01  5.5947313124736686e-01  5.6593137050790598e-01  5.7235506823450721e-01  5.7874383235777038e-01  5.8509727294046221e-01  5.9141500220131626e-01  5.9769663453870159e-01  6.0394178655415665e-01  6.1015007707579139e-01  6.1632112718155097e-01  6.2245456022234369e-01  6.2855000184502963e-01  6.3460708001526933e-01  6.4062542504023046e-01  6.4660466959115237e-01  6.5254444872576600e-01  6.5844439991056758e-01  6.6430416304294626e-01  6.7012338047316289e-01  6.7590169702617886e-01  6.8163876002333423e-01  6.8733421930387351e-01  6.9298772724631785e-01  6.9859893878968171e-01  7.0416751145453371e-01  7.0969310536389973e-01  7.1517538326400754e-01  7.2061401054487106e-01  7.2600865526071257e-01  7.3135898815022360e-01  7.3666468265666130e-01  7.4192541494777964e-01  7.4714086393559420e-01  7.5231071129598037e-01  7.5743464148810136e-01  7.6251234177366833e-01  7.6754350223602696e-01  7.7252781579907448e-01  7.7746497824600080e-01  7.8235468823785737e-01  7.8719664733194894e-01  7.9199056000004853e-01  7.9673613364643570e-01  8.0143307862575475e-01  8.0608110826069290e-01  8.1067993885947831e-01  8.1522928973319431e-01  8.1972888321291193e-01  8.2417844466663670e-01  8.2857770251607155e-01  8.3292638825319187e-01  8.3722423645663435e-01  8.4147098480789650e-01  0.0000000000000000e+00  7.8736941009967445e-03  1.5746907632288080e-02  2.3619160053500100e-02  3.1489970882920104e-02  3.9358859726822702e-02  4.7225346308790633e-02  5.5088950499028295e-02  6.2949192343666430e-02  7.0805592094056014e-02  7.8657670236049665e-02  8.6504947519268696e-02  9.4346944986354112e-02  1.0218318400219967e-01  1.1001318628316531e-01  1.1783647392626909e-01  1.2565256943835604e-01  1.3346099576524167e-01  1.4126127632082922e-01  1.4905293501619760e-01  1.5683549628865975e-01  1.6460848513078843e-01  1.7237142711940820e-01  1.8012384844455170e-01  1.8786527593837873e-01  1.9559523710405588e-01  2.0331326014459522e-01  2.1101887399165059e-01  2.1871160833426889e-01  2.2639099364759574e-01  2.3405656122153254e-01  2.4170784318934443e-01  2.4934437255621628e-01  2.5696568322775559e-01  2.6457131003844070e-01  2.7216078878001193e-01  2.7973365622980451e-01  2.8728945017902130e-01  2.9482770946094361e-01  3.0234797397907853e-01  3.0984978473524077e-01  3.1733268385756747e-01  3.2479621462846453e-01  3.3223992151248216e-01  3.3966335018411842e-01  3.4706604755554898e-01  3.5444756180428116e-01  3.6180744240073093e-01  3.6914524013572103e-01  3.7646050714789797e-01  3.8375279695106762e-01  3.9102166446144637e-01  3.9826666602482647e-01  4.0548735944365449e-01  4.1268330400402109e-01  4.1985406050255952e-01  4.2699919127325259e-01  4.3411826021414540e-01  4.4121083281396278e-01  4.4827647617862981e-01  4.5531475905769314e-01  4.6232525187064244e-01  4.6930752673312981e-01  4.7626115748308573e-01  4.8318571970672947e-01  4.9008079076447342e-01  4.9694594981671875e-01  5.0378077784954112e-01  5.1058485770026574e-01  5.1735777408292760e-01  5.2409911361361994e-01  5.3080846483572375e-01  5.3748541824502172e-01  5.4412956631469223e-01  5.5074050352018222e-01  5.5731782636395866e-01  5.6386113340013577e-01  5.7037002525897784e-01  5.7684410467127367e-01  5.8328297649258465e-01  5.8968624772736189e-01  5.9605352755293284e-01  6.0238442734335551e-01  6.0867856069313675e-01  6.1493554344081858e-01  6.2115499369242355e-01  6.2733653184476446e-01  6.3347978060861332e-01  6.3958436503172922e-01  6.4564991252174309e-01  6.5167605286889896e-01  6.5766241826865024e-01  6.6360864334410752e-01  6.6951436516834018e-01  6.7537922328652744e-01  6.8120285973795835e-01  6.8698491907787995e-01  6.9272504839919191e-01  6.9842289735398622e-01  7.0407811817493060e-01  7.0969036569649424e-01  7.1525929737601479e-01  7.2078457331460588e-01  7.2626585627790285e-01  7.3170281171664497e-01  7.3709510778709530e-01  7.4244241537129474e-01  7.4774440809714937e-01  7.5300076235835067e-01  7.5821115733412681e-01  7.6337527500882363e-01  7.6849280019131549e-01  7.7356342053424165e-01  7.7858682655307165e-01  7.8356271164499325e-01  7.8849077210762719e-01  7.9337070715756342e-01  7.9820221894871812e-01  8.0298501259051425e-01  8.0771879616587949e-01  8.1240328074906287e-01  8.1703818042327059e-01  8.2162321229811530e-01  8.2615809652688388e-01  8.3064255632361628e-01  8.3507631798000048e-01  8.3945911088207736e-01  8.4379066752675802e-01  8.4807072353815038e-01  0.0000000000000000e+00  7.9354482492046980e-03  1.5870412159549072e-02  2.3804407421734352e-02  3.1736949785583057e-02  3.9667555089595123e-02  4.7595739290498644e-02  5.5521018492793367e-02  6.3442908978285181e-02  7.1360927235609786e-02  7.9274589989743724e-02  8.7183414231501000e-02  9.5086917247013486e-02  1.0298461664719327e-01  1.1087603039717522e-01  1.1876067684573788e-01  1.2663807475470099e-01  1.3450774332829779e-01  1.4236920224252037e-01  1.5022197167443599e-01  1.5806557233147320e-01  1.6589952548067535e-01  1.7372335297791988e-01  1.8153657729710182e-01  1.8933872155927961e-01  1.9712930956178121e-01  2.0490786580726911e-01  2.1267391553276227e-01  2.2042698473861311e-01  2.2816660021743815e-01  2.3589228958299996e-01  2.4360358129903933e-01  2.5130000470805541e-01  2.5898109006003217e-01  2.6664636854110946e-01  2.7429537230219708e-01  2.8192763448752994e-01  2.8954268926316235e-01  2.9714007184540014e-01  3.0471931852916900e-01  3.1227996671631619e-01  3.1982155494384534e-01  3.2734362291208191e-01  3.3484571151276715e-01  3.4232736285708021e-01  3.4978812030358480e-01  3.5722752848610062e-01  3.6464513334149617e-01  3.7204048213740304e-01  3.7941312349984763e-01  3.8676260744080110e-01  3.9408848538564456e-01  4.0139031020054711e-01  4.0866763621975694e-01  4.1592001927280270e-01  4.2314701671160299e-01  4.3034818743748338e-01  4.3752309192809896e-01  4.4467129226426055e-01  4.5179235215666275e-01  4.5888583697251301e-01  4.6595131376205939e-01  4.7298835128501543e-01  4.7999652003688098e-01  4.8697539227515685e-01  4.9392454204545200e-01  5.0084354520748187e-01  5.0773197946095505e-01  5.1458942437134925e-01  5.2141546139557149e-01  5.2820967390750473e-01  5.3497164722343571e-01  5.4170096862736572e-01  5.4839722739620078e-01  5.5506001482481904e-01  5.6168892425101735e-01  5.6828355108033102e-01  5.7484349281072811e-01  5.8136834905717683e-01  5.8785772157608229e-01  5.9431121428959310e-01  6.0072843330977665e-01  6.0710898696265991e-01  6.1345248581213385e-01  6.1975854268372477e-01  6.2602677268822371e-01  6.3225679324517881e-01  6.3844822410624591e-01  6.4460068737839737e-01  6.5071380754698571e-01  6.5678721149866404e-01  6.6282052854415885e-01  6.6881339044089438e-01  6.7476543141546874e-01  6.8067628818597903e-01  6.8654559998419351e-01  6.9237300857757156e-01  6.9815815829112804e-01  7.0390069602914251e-01  7.0960027129670955e-01  7.1525653622113139e-01  7.2086914557315052e-01  7.2643775678802036e-01  7.3196202998641458e-01  7.3744162799516988e-01  7.4287621636786672e-01  7.4826546340524169e-01  7.5360904017543318e-01  7.5890662053405655e-01  7.6415788114411176e-01  7.6936250149571672e-01  7.7452016392567136e-01  7.7963055363684408e-01  7.8469335871738710e-01  7.8970827015977274e-01  7.9467498187965446e-01  7.9959319073454849e-01  8.0446259654233532e-01  8.0928290209958242e-01  8.1405381319968351e-01  8.1877503865081491e-01  8.2344629029370953e-01  8.2806728301924348e-01  8.3263773478583825e-01  8.3715736663667484e-01  8.4162590271672022e-01  8.4604307028956383e-01  8.5040859975406391e-01  8.5472222466080272e-01  0.0000000000000000e+00  7.9976867411999473e-03  1.5994885344822810e-02  2.3991107703084907e-02  3.1985865767787544e-02  3.9978671580104944e-02  4.7969037300366779e-02  5.5956475237833342e-02  6.3940497880461702e-02  7.1920617924660937e-02  7.9896348305034587e-02  8.7867202224108681e-02  9.5832693182043280e-02  1.0379233500632598e-01  1.1174564188144535e-01  1.1969212837854255e-01  1.2763130948503953e-01  1.3556270063424158e-01  1.4348581773491290e-01  1.5140017720082286e-01  1.5930529598026177e-01  1.6720069158552386e-01  1.7508588212235579e-01  1.8296038631936884e-01  1.9082372355741362e-01  1.9867541389891424e-01  2.0651497811716132e-01  2.1434193772556165e-01  2.2215581500684228e-01  2.2995613304220827e-01  2.3774241574045099e-01  2.4551418786700654e-01  2.5327097507296154e-01  2.6101230392400487e-01  2.6873770192932372e-01  2.7644669757044210e-01  2.8413882032999954e-01  2.9181360072046969e-01  2.9947057031281460e-01  3.0710926176507586e-01  3.1472920885089861e-01  3.2232994648798730e-01  3.2991101076649221e-01  3.3747193897732403e-01  3.4501226964039527e-01  3.5253154253278657e-01  3.6002929871683625e-01  3.6750508056815173e-01  3.7495843180354044e-01  3.8238889750885896e-01  3.8979602416677861e-01  3.9717935968446599e-01  4.0453845342117628e-01  4.1187285621575781e-01  4.1918212041406699e-01  4.2646579989629052e-01  4.3372345010417424e-01  4.4095462806815672e-01  4.4815889243440599e-01  4.5533580349175723e-01  4.6248492319855067e-01  4.6960581520936734e-01  4.7669804490166134e-01  4.8376117940228697e-01  4.9079478761391904e-01  4.9779844024136483e-01  5.0477170981776609e-01  5.1171417073068959e-01  5.1862539924810380e-01  5.2550497354424186e-01  5.3235247372534744e-01  5.3916748185530272e-01  5.4594958198113719e-01  5.5269836015841567e-01  5.5941340447650256e-01  5.6609430508370329e-01  5.7274065421227949e-01  5.7935204620333680e-01  5.8592807753158449e-01  5.9246834682996452e-01  5.9897245491414852e-01  6.0544000480690252e-01  6.1187060176231611e-01  6.1826385328989553e-01  6.2461936917851979e-01  6.3093676152025635e-01  6.3721564473403780e-01  6.4345563558919527e-01  6.4965635322884929e-01  6.5581741919315462e-01  6.6193845744239999e-01  6.6801909437995988e-01  6.7405895887509637e-01  6.8005768228561103e-01  6.8601489848034580e-01  6.9193024386152868e-01  6.9780335738696619e-01  7.0363388059208010e-01  7.0942145761178543e-01  7.1516573520221149e-01  7.2086636276226101e-01  7.2652299235500983e-01  7.3213527872894291e-01  7.3770287933902701e-01  7.4322545436761722e-01  7.4870266674519814e-01  7.5413418217095685e-01  7.5951966913318703e-01  7.6485879892952213e-01  7.7015124568699833e-01  7.7539668638194359e-01  7.8059480085969446e-01  7.8574527185413467e-01  7.9084778500706177e-01  7.9590202888737172e-01  8.0090769501006898e-01  8.0586447785509341e-01  8.1077207488596836e-01  8.1563018656826580e-01  8.2043851638788834e-01  8.2519677086916654e-01  8.2990465959277215e-01  8.3456189521344259e-01  8.3916819347752014e-01  8.4372327324030028e-01  8.4822685648319196e-01  8.5267866833068651e-01  8.5707843706713438e-01  8.6142589415332882e-01  0.0000000000000000e+00  8.0604133757378998e-03  1.6120334785388248e-02  2.4179272292890568e-02  3.2236734022236702e-02  4.0292228187492368e-02  4.8345263122813294e-02  5.6395347312453874e-02  6.4441989420766857e-02  7.2484698322191871e-02  8.0522983131231213e-02  8.8556353232410998e-02  9.6584318310225764e-02  1.0460638837906483e-01  1.1262207381311846e-01  1.2063088537626213e-01  1.2863233425191697e-01  1.3662593207288456e-01  1.4461119095115452e-01  1.5258762350768237e-01  1.6055474290213695e-01  1.6851206286261450e-01  1.7645909771531812e-01  1.8439536241420096e-01  1.9232037257057080e-01  2.0023364448265474e-01  2.0813469516512173e-01  2.1602304237856165e-01  2.2389820465891863e-01  2.3175970134687721e-01  2.3960705261719914e-01  2.4743977950800963e-01  2.5525740395003066e-01  2.6305944879575982e-01  2.7084543784859288e-01  2.7861489589188859e-01  2.8636734871797320e-01  2.9410232315708396e-01  3.0181934710624841e-01  3.0951794955809986e-01  3.1719766062962473e-01  3.2485801159084177e-01  3.3249853489341136e-01  3.4011876419917170e-01  3.4771823440860217e-01  3.5529648168921030e-01  3.6285304350384173e-01  3.7038745863891126e-01  3.7789926723255296e-01  3.8538801080268748e-01  3.9285323227500563e-01  4.0029447601086610e-01  4.0771128783510474e-01  4.1510321506375542e-01  4.2246980653167959e-01  4.2981061262010278e-01  4.3712518528405730e-01  4.4441307807972846e-01  4.5167384619170314e-01  4.5890704646011921e-01  4.6611223740771357e-01  4.7328897926676772e-01  4.8043683400594883e-01  4.8755536535704508e-01  4.9464413884159303e-01  5.0170272179739606e-01  5.0873068340493188e-01  5.1572759471364737e-01  5.2269302866813960e-01  5.2962656013422127e-01  5.3652776592486850e-01  5.4339622482604966e-01  5.5023151762243494e-01  5.5703322712298264e-01  5.6380093818640187e-01  5.7053423774649148e-01  5.7723271483735106e-01  5.8389596061846416e-01  5.9052356839965192e-01  5.9711513366589553e-01  6.0367025410202502e-01  6.1018852961727543e-01  6.1666956236970594e-01  6.2311295679048140e-01  6.2951831960801719e-01  6.3588525987198130e-01  6.4221338897715630e-01  6.4850232068715818e-01  6.5475167115800970e-01  6.6096105896156843e-01  6.6713010510880699e-01  6.7325843307294531e-01  6.7934566881243086e-01  6.8539144079376890e-01  6.9139538001419876e-01  6.9735712002421590e-01  7.0327629694993810e-01  7.0915254951531403e-01  7.1498551906417485e-01  7.2077484958212334e-01  7.2652018771826410e-01  7.3222118280676962e-01  7.3787748688828392e-01  7.4348875473115961e-01  7.4905464385252896e-01  7.5457481453920761e-01  7.6004892986842887e-01  7.6547665572840795e-01  7.7085766083873342e-01  7.7619161677058857e-01  7.8147819796679496e-01  7.8671708176168498e-01  7.9190794840079370e-01  7.9705048106037635e-01  8.0214436586674465e-01  8.0718929191542521e-01  8.1218495129013446e-01  8.1713103908157270e-01  8.2202725340603411e-01  8.2687329542383259e-01  8.3166886935754047e-01  8.3641368251004244e-01  8.4110744528239922e-01  8.4574987119152378e-01  8.5034067688766646e-01  8.5487958217170956e-01  8.5936631001226882e-01  8.6380058656260250e-01  8.6818214117732484e-01  0.0000000000000000e+00  8.1236319813679653e-03  1.6246768138110532e-02  2.4368912675864884e-02  3.2489569860791510e-02  4.0608244049831259e-02  4.8724439720956823e-02  5.6837661503416848e-02  6.4947414207970816e-02  7.3053202857112878e-02  8.1154532715282626e-02  8.9250909319061336e-02  9.7341838507351383e-02  1.0542682645153728e-01  1.1350537968562652e-01  1.2157700513636804e-01  1.2964121015334706e-01  1.3769750253905377e-01  1.4574539057892463e-01  1.5378438307135403e-01  1.6181398935767469e-01  1.6983371935210503e-01  1.7784308357166148e-01  1.8584159316603374e-01  1.9382875994742207e-01  2.0180409642033353e-01  2.0976711581133620e-01  2.1771733209876937e-01  2.2565426004240774e-01  2.3357741521307812e-01  2.4148631402222634e-01  2.4938047375143302e-01  2.5725941258187635e-01  2.6512264962373960e-01  2.7296970494556239e-01  2.8080009960353308e-01  2.8861335567072105e-01  2.9640899626624712e-01  3.0418654558438940e-01  3.1194552892362454e-01  3.1968547271560077e-01  3.2740590455404217e-01  3.3510635322358190e-01  3.4278634872852276e-01  3.5044542232152331e-01  3.5808310653220771e-01  3.6569893519569785e-01  3.7329244348106549e-01  3.8086316791970332e-01  3.8841064643361256e-01  3.9593441836360582e-01  4.0343402449742349e-01  4.1090900709776157e-01  4.1835890993020952e-01  4.2578327829109680e-01  4.3318165903524519e-01  4.4055360060362675e-01  4.4789865305092452e-01  4.5521636807299487e-01  4.6250629903422991e-01  4.6976800099481725e-01  4.7700103073789751e-01  4.8420494679661563e-01  4.9137930948106567e-01  4.9852368090512744e-01  5.0563762501319254e-01  5.1272070760677946e-01  5.1977249637103407e-01  5.2679256090111659e-01  5.3378047272847062e-01  5.4073580534697563e-01  5.4765813423897725e-01  5.5454703690119911e-01  5.6140209287052956e-01  5.6822288374968433e-01  5.7500899323274390e-01  5.8176000713056220e-01  5.8847551339604709e-01  5.9515510214930900e-01  6.0179836570267831e-01  6.0840489858558844e-01  6.1497429756932331e-01  6.2150616169162920e-01  6.2800009228118636e-01  6.3445569298194271e-01  6.4087256977730467e-01  6.4725033101418661e-01  6.5358858742691472e-01  6.5988695216098625e-01  6.6614504079668080e-01  6.7236247137252325e-01  6.7853886440859734e-01  6.8467384292970623e-01  6.9076703248838189e-01  6.9681806118773915e-01  7.0282655970417451e-01  7.0879216130990719e-01  7.1471450189536301e-01  7.2059321999139780e-01  7.2642795679135885e-01  7.3221835617298525e-01  7.3796406472014353e-01  7.4366473174439829e-01  7.4932000930641707e-01  7.5492955223720570e-01  7.6049301815917614e-01  7.6601006750704381e-01  7.7148036354855254e-01  7.7690357240502672e-01  7.8227936307175028e-01  7.8760740743816837e-01  7.9288738030791495e-01  7.9811895941865985e-01  8.0330182546177897e-01  8.0843566210184215e-01  8.1352015599592176e-01  8.1855499681271726e-01  8.2353987725149524e-01  8.2847449306084708e-01  8.3335854305725765e-01  8.3819172914348838e-01  8.4297375632677185e-01  8.4770433273681622e-01  8.5238316964361982e-01  8.5700998147509322e-01  8.6158448583448988e-01  8.6610640351764157e-01  8.7057545852999974e-01  8.7499137810348082e-01  0.0000000000000000e+00  8.1873464166672440e-03  1.6374193119908356e-02  2.4560040426797134e-02  3.2744388715405380e-02  4.0926738455297249e-02  4.9106590238018000e-02  5.7283444807575329e-02  6.5456803090911370e-02  7.3626166228363571e-02  8.1791035604112453e-02  8.9950912876614608e-02  9.8105300009018889e-02  1.0625369929956401e-01  1.1439561341195567e-01  1.2253054540572139e-01  1.3065799876654130e-01  1.3877747743655267e-01  1.4688848584462685e-01  1.5499052893661627e-01  1.6308311220557006e-01  1.7116574172191620e-01  1.7923792416360845e-01  1.8729916684623610e-01  1.9534897775309498e-01  2.0338686556521762e-01  2.1141233969136072e-01  2.1942491029794850e-01  2.2742408833896940e-01  2.3540938558582514e-01  2.4338031465712948e-01  2.5133638904845557e-01  2.5927712316202967e-01  2.6720203233636963e-01  2.7511063287586585e-01  2.8300244208030384e-01  2.9087697827432568e-01  2.9873376083682895e-01  3.0657231023030135e-01  3.1439214803008930e-01  3.2219279695359848e-01  3.2997378088942453e-01  3.3773462492641276e-01  3.4547485538264394e-01  3.5319399983434574e-01  3.6089158714472669e-01  3.6856714749273223e-01  3.7622021240171993e-01  3.8385031476805326e-01  3.9145698888961067e-01  3.9903977049420997e-01  4.0659819676794529e-01  4.1413180638343433e-01  4.2164013952797574e-01  4.2912273793161393e-01  4.3657914489510