<?xml version="1.0"?>
<VTKFile type="UnstructuredGrid"  version="0.1"  >
<UnstructuredGrid>
<Piece  NumberOfPoints="1089" NumberOfCells="2048">
<Points>
<DataArray  type="Float64"  NumberOfComponents="3"  format="ascii">0 0 0  0.03125 0 0  0.0625 0 0  0.09375 0 0  0.125 0 0  0.15625 0 0  0.1875 0 0  0.21875 0 0  0.25 0 0  0.28125 0 0  0.3125 0 0  0.34375 0 0  0.375 0 0  0.40625 0 0  0.4375 0 0  0.46875 0 0  0.5 0 0  0.53125 0 0  0.5625 0 0  0.59375 0 0  0.625 0 0  0.65625 0 0  0.6875 0 0  0.71875 0 0  0.75 0 0  0.78125 0 0  0.8125 0 0  0.84375 0 0  0.875 0 0  0.90625 0 0  0.9375 0 0  0.96875 0 0  1 0 0  0 0.03125 0  0.03125 0.03125 0  0.0625 0.03125 0  0.09375 0.03125 0  0.125 0.03125 0  0.15625 0.03125 0  0.1875 0.03125 0  0.21875 0.03125 0  0.25 0.03125 0  0.28125 0.03125 0  0.3125 0.03125 0  0.34375 0.03125 0  0.375 0.03125 0  0.40625 0.03125 0  0.4375 0.03125 0  0.46875 0.03125 0  0.5 0.03125 0  0.53125 0.03125 0  0.5625 0.03125 0  0.59375 0.03125 0  0.625 0.03125 0  0.65625 0.03125 0  0.6875 0.03125 0  0.71875 0.03125 0  0.75 0.03125 0  0.78125 0.03125 0  0.8125 0.03125 0  0.84375 0.03125 0  0.875 0.03125 0  0.90625 0.03125 0  0.9375 0.03125 0  0.96875 0.03125 0  1 0.03125 0  0 0.0625 0  0.03125 0.0625 0  0.0625 0.0625 0  0.09375 0.0625 0  0.125 0.0625 0  0.15625 0.0625 0  0.1875 0.0625 0  0.21875 0.0625 0  0.25 0.0625 0  0.28125 0.0625 0  0.3125 0.0625 0  0.34375 0.0625 0  0.375 0.0625 0  0.40625 0.0625 0  0.4375 0.0625 0  0.46875 0.0625 0  0.5 0.0625 0  0.53125 0.0625 0  0.5625 0.0625 0  0.59375 0.0625 0  0.625 0.0625 0  0.65625 0.0625 0  0.6875 0.0625 0  0.71875 0.0625 0  0.75 0.0625 0  0.78125 0.0625 0  0.8125 0.0625 0  0.84375 0.0625 0  0.875 0.0625 0  0.90625 0.0625 0  0.9375 0.0625 0  0.96875 0.0625 0  1 0.0625 0  0 0.09375 0  0.03125 0.09375 0  0.0625 0.09375 0  0.09375 0.09375 0  0.125 0.09375 0  0.15625 0.09375 0  0.1875 0.09375 0  0.21875 0.09375 0  0.25 0.09375 0  0.28125 0.09375 0  0.3125 0.09375 0  0.34375 0.09375 0  0.375 0.09375 0  0.40625 0.09375 0  0.4375 0.09375 0  0.46875 0.09375 0  0.5 0.09375 0  0.53125 0.09375 0  0.5625 0.09375 0  0.59375 0.09375 0  0.625 0.09375 0  0.65625 0.09375 0  0.6875 0.09375 0  0.71875 0.09375 0  0.75 0.09375 0  0.78125 0.09375 0  0.8125 0.09375 0  0.84375 0.09375 0  0.875 0.09375 0  0.90625 0.09375 0  0.9375 0.09375 0  0.96875 0.09375 0  1 0.09375 0  0 0.125 0  0.03125 0.125 0  0.0625 0.125 0  0.09375 0.125 0  0.125 0.125 0  0.15625 0.125 0  0.1875 0.125 0  0.21875 0.125 0  0.25 0.125 0  0.28125 0.125 0  0.3125 0.125 0  0.34375 0.125 0  0.375 0.125 0  0.40625 0.125 0  0.4375 0.125 0  0.46875 0.125 0  0.5 0.125 0  0.53125 0.125 0  0.5625 0.125 0  0.59375 0.125 0  0.625 0.125 0  0.65625 0.125 0  0.6875 0.125 0  0.71875 0.125 0  0.75 0.125 0  0.78125 0.125 0  0.8125 0.125 0  0.84375 0.125 0  0.875 0.125 0  0.90625 0.125 0  0.9375 0.125 0  0.96875 0.125 0  1 0.125 0  0 0.15625 0  0.03125 0.15625 0  0.0625 0.15625 0  0.09375 0.15625 0  0.125 0.15625 0  0.15625 0.15625 0  0.1875 0.15625 0  0.21875 0.15625 0  0.25 0.15625 0  0.28125 0.15625 0  0.3125 0.15625 0  0.34375 0.15625 0  0.375 0.15625 0  0.40625 0.15625 0  0.4375 0.15625 0  0.46875 0.15625 0  0.5 0.15625 0  0.53125 0.15625 0  0.5625 0.15625 0  0.59375 0.15625 0  0.625 0.15625 0  0.65625 0.15625 0  0.6875 0.15625 0  0.71875 0.15625 0  0.75 0.15625 0  0.78125 0.15625 0  0.8125 0.15625 0  0.84375 0.15625 0  0.875 0.15625 0  0.90625 0.15625 0  0.9375 0.15625 0  0.96875 0.15625 0  1 0.15625 0  0 0.1875 0  0.03125 0.1875 0  0.0625 0.1875 0  0.09375 0.1875 0  0.125 0.1875 0  0.15625 0.1875 0  0.1875 0.1875 0  0.21875 0.1875 0  0.25 0.1875 0  0.28125 0.1875 0  0.3125 0.1875 0  0.34375 0.1875 0  0.375 0.1875 0  0.40625 0.1875 0  0.4375 0.1875 0  0.46875 0.1875 0  0.5 0.1875 0  0.53125 0.1875 0  0.5625 0.1875 0  0.59375 0.1875 0  0.625 0.1875 0  0.65625 0.1875 0  0.6875 0.1875 0  0.71875 0.1875 0  0.75 0.1875 0  0.78125 0.1875 0  0.8125 0.1875 0  0.84375 0.1875 0  0.875 0.1875 0  0.90625 0.1875 0  0.9375 0.1875 0  0.96875 0.1875 0  1 0.1875 0  0 0.21875 0  0.03125 0.21875 0  0.0625 0.21875 0  0.09375 0.21875 0  0.125 0.21875 0  0.15625 0.21875 0  0.1875 0.21875 0  0.21875 0.21875 0  0.25 0.21875 0  0.28125 0.21875 0  0.3125 0.21875 0  0.34375 0.21875 0  0.375 0.21875 0  0.40625 0.21875 0  0.4375 0.21875 0  0.46875 0.21875 0  0.5 0.21875 0  0.53125 0.21875 0  0.5625 0.21875 0  0.59375 0.21875 0  0.625 0.21875 0  0.65625 0.21875 0  0.6875 0.21875 0  0.71875 0.21875 0  0.75 0.21875 0  0.78125 0.21875 0  0.8125 0.21875 0  0.84375 0.21875 0  0.875 0.21875 0  0.90625 0.21875 0  0.9375 0.21875 0  0.96875 0.21875 0  1 0.21875 0  0 0.25 0  0.03125 0.25 0  0.0625 0.25 0  0.09375 0.25 0  0.125 0.25 0  0.15625 0.25 0  0.1875 0.25 0  0.21875 0.25 0  0.25 0.25 0  0.28125 0.25 0  0.3125 0.25 0  0.34375 0.25 0  0.375 0.25 0  0.40625 0.25 0  0.4375 0.25 0  0.46875 0.25 0  0.5 0.25 0  0.53125 0.25 0  0.5625 0.25 0  0.59375 0.25 0  0.625 0.25 0  0.65625 0.25 0  0.6875 0.25 0  0.71875 0.25 0  0.75 0.25 0  0.78125 0.25 0  0.8125 0.25 0  0.84375 0.25 0  0.875 0.25 0  0.90625 0.25 0  0.9375 0.25 0  0.96875 0.25 0  1 0.25 0  0 0.28125 0  0.03125 0.28125 0  0.0625 0.28125 0  0.09375 0.28125 0  0.125 0.28125 0  0.15625 0.28125 0  0.1875 0.28125 0  0.21875 0.28125 0  0.25 0.28125 0  0.28125 0.28125 0  0.3125 0.28125 0  0.34375 0.28125 0  0.375 0.28125 0  0.40625 0.28125 0  0.4375 0.28125 0  0.46875 0.28125 0  0.5 0.28125 0  0.53125 0.28125 0  0.5625 0.28125 0  0.59375 0.28125 0  0.625 0.28125 0  0.65625 0.28125 0  0.6875 0.28125 0  0.71875 0.28125 0  0.75 0.28125 0  0.78125 0.28125 0  0.8125 0.28125 0  0.84375 0.28125 0  0.875 0.28125 0  0.90625 0.28125 0  0.9375 0.28125 0  0.96875 0.28125 0  1 0.28125 0  0 0.3125 0  0.03125 0.3125 0  0.0625 0.3125 0  0.09375 0.3125 0  0.125 0.3125 0  0.15625 0.3125 0  0.1875 0.3125 0  0.21875 0.3125 0  0.25 0.3125 0  0.28125 0.3125 0  0.3125 0.3125 0  0.34375 0.3125 0  0.375 0.3125 0  0.40625 0.3125 0  0.4375 0.3125 0  0.46875 0.3125 0  0.5 0.3125 0  0.53125 0.3125 0  0.5625 0.3125 0  0.59375 0.3125 0  0.625 0.3125 0  0.65625 0.3125 0  0.6875 0.3125 0  0.71875 0.3125 0  0.75 0.3125 0  0.78125 0.3125 0  0.8125 0.3125 0  0.84375 0.3125 0  0.875 0.3125 0  0.90625 0.3125 0  0.9375 0.3125 0  0.96875 0.3125 0  1 0.3125 0  0 0.34375 0  0.03125 0.34375 0  0.0625 0.34375 0  0.09375 0.34375 0  0.125 0.34375 0  0.15625 0.34375 0  0.1875 0.34375 0  0.21875 0.34375 0  0.25 0.34375 0  0.28125 0.34375 0  0.3125 0.34375 0  0.34375 0.34375 0  0.375 0.34375 0  0.40625 0.34375 0  0.4375 0.34375 0  0.46875 0.34375 0  0.5 0.34375 0  0.53125 0.34375 0  0.5625 0.34375 0  0.59375 0.34375 0  0.625 0.34375 0  0.65625 0.34375 0  0.6875 0.34375 0  0.71875 0.34375 0  0.75 0.34375 0  0.78125 0.34375 0  0.8125 0.34375 0  0.84375 0.34375 0  0.875 0.34375 0  0.90625 0.34375 0  0.9375 0.34375 0  0.96875 0.34375 0  1 0.34375 0  0 0.375 0  0.03125 0.375 0  0.0625 0.375 0  0.09375 0.375 0  0.125 0.375 0  0.15625 0.375 0  0.1875 0.375 0  0.21875 0.375 0  0.25 0.375 0  0.28125 0.375 0  0.3125 0.375 0  0.34375 0.375 0  0.375 0.375 0  0.40625 0.375 0  0.4375 0.375 0  0.46875 0.375 0  0.5 0.375 0  0.53125 0.375 0  0.5625 0.375 0  0.59375 0.375 0  0.625 0.375 0  0.65625 0.375 0  0.6875 0.375 0  0.71875 0.375 0  0.75 0.375 0  0.78125 0.375 0  0.8125 0.375 0  0.84375 0.375 0  0.875 0.375 0  0.90625 0.375 0  0.9375 0.375 0  0.96875 0.375 0  1 0.375 0  0 0.40625 0  0.03125 0.40625 0  0.0625 0.40625 0  0.09375 0.40625 0  0.125 0.40625 0  0.15625 0.40625 0  0.1875 0.40625 0  0.21875 0.40625 0  0.25 0.40625 0  0.28125 0.40625 0  0.3125 0.40625 0  0.34375 0.40625 0  0.375 0.40625 0  0.40625 0.40625 0  0.4375 0.40625 0  0.46875 0.40625 0  0.5 0.40625 0  0.53125 0.40625 0  0.5625 0.40625 0  0.59375 0.40625 0  0.625 0.40625 0  0.65625 0.40625 0  0.6875 0.40625 0  0.71875 0.40625 0  0.75 0.40625 0  0.78125 0.40625 0  0.8125 0.40625 0  0.84375 0.40625 0  0.875 0.40625 0  0.90625 0.40625 0  0.9375 0.40625 0  0.96875 0.40625 0  1 0.40625 0  0 0.4375 0  0.03125 0.4375 0  0.0625 0.4375 0  0.09375 0.4375 0  0.125 0.4375 0  0.15625 0.4375 0  0.1875 0.4375 0  0.21875 0.4375 0  0.25 0.4375 0  0.28125 0.4375 0  0.3125 0.4375 0  0.34375 0.4375 0  0.375 0.4375 0  0.40625 0.4375 0  0.4375 0.4375 0  0.46875 0.4375 0  0.5 0.4375 0  0.53125 0.4375 0  0.5625 0.4375 0  0.59375 0.4375 0  0.625 0.4375 0  0.65625 0.4375 0  0.6875 0.4375 0  0.71875 0.4375 0  0.75 0.4375 0  0.78125 0.4375 0  0.8125 0.4375 0  0.84375 0.4375 0  0.875 0.4375 0  0.90625 0.4375 0  0.9375 0.4375 0  0.96875 0.4375 0  1 0.4375 0  0 0.46875 0  0.03125 0.46875 0  0.0625 0.46875 0  0.09375 0.46875 0  0.125 0.46875 0  0.15625 0.46875 0  0.1875 0.46875 0  0.21875 0.46875 0  0.25 0.46875 0  0.28125 0.46875 0  0.3125 0.46875 0  0.34375 0.46875 0  0.375 0.46875 0  0.40625 0.46875 0  0.4375 0.46875 0  0.46875 0.46875 0  0.5 0.46875 0  0.53125 0.46875 0  0.5625 0.46875 0  0.59375 0.46875 0  0.625 0.46875 0  0.65625 0.46875 0  0.6875 0.46875 0  0.71875 0.46875 0  0.75 0.46875 0  0.78125 0.46875 0  0.8125 0.46875 0  0.84375 0.46875 0  0.875 0.46875 0  0.90625 0.46875 0  0.9375 0.46875 0  0.96875 0.46875 0  1 0.46875 0  0 0.5 0  0.03125 0.5 0  0.0625 0.5 0  0.09375 0.5 0  0.125 0.5 0  0.15625 0.5 0  0.1875 0.5 0  0.21875 0.5 0  0.25 0.5 0  0.28125 0.5 0  0.3125 0.5 0  0.34375 0.5 0  0.375 0.5 0  0.40625 0.5 0  0.4375 0.5 0  0.46875 0.5 0  0.5 0.5 0  0.53125 0.5 0  0.5625 0.5 0  0.59375 0.5 0  0.625 0.5 0  0.65625 0.5 0  0.6875 0.5 0  0.71875 0.5 0  0.75 0.5 0  0.78125 0.5 0  0.8125 0.5 0  0.84375 0.5 0  0.875 0.5 0  0.90625 0.5 0  0.9375 0.5 0  0.96875 0.5 0  1 0.5 0  0 0.53125 0  0.03125 0.53125 0  0.0625 0.53125 0  0.09375 0.53125 0  0.125 0.53125 0  0.15625 0.53125 0  0.1875 0.53125 0  0.21875 0.53125 0  0.25 0.53125 0  0.28125 0.53125 0  0.3125 0.53125 0  0.34375 0.53125 0  0.375 0.53125 0  0.40625 0.53125 0  0.4375 0.53125 0  0.46875 0.53125 0  0.5 0.53125 0  0.53125 0.53125 0  0.5625 0.53125 0  0.59375 0.53125 0  0.625 0.53125 0  0.65625 0.53125 0  0.6875 0.53125 0  0.71875 0.53125 0  0.75 0.53125 0  0.78125 0.531
[...]
<PointData  Scalars="f_506"> 
<DataArray  type="Float64"  Name="f_506"  format="ascii">-7.9023167670272909e-01  -7.5899042337412814e-01  -7.2776068343425981e-01  -6.9659178057134974e-01  -6.6551892637218446e-01  -6.3457380164366839e-01  -6.0378763275702896e-01  -5.7319080069732031e-01  -5.4281324554961352e-01  -5.1268458016903340e-01  -4.8283414035975558e-01  -4.5329100893091978e-01  -4.2408401591213063e-01  -3.9524172402202434e-01  -3.6679240225702398e-01  -3.3876398897728099e-01  -3.1118404513503328e-01  -2.8407969792997678e-01  -2.5747757517837799e-01  -2.3140373086330385e-01  -2.0588356290976265e-01  -1.8094172450169649e-01  -1.5660203246479001e-01  -1.3288737351805130e-01  -1.0981963624031077e-01  -8.7419563290728086e-02  -6.5707048303401294e-02  -4.4700477417576490e-02  -2.4416429599906031e-02  -4.8813137271901397e-03  1.3892879775891154e-02  3.2099088191331449e-02  4.7309961958714897e-02  -7.9023759341481048e-01  -7.5800179307228643e-01  -7.2578374339329588e-01  -6.9363100460938032e-01  -6.6157502055176587e-01  -6.2964931427437931e-01  -5.9788610042170554e-01  -5.6631688563222737e-01  -5.3497275262396193e-01  -5.0388442158369617e-01  -4.7308230858351780e-01  -4.4259654488324546e-01  -4.1245697481834526e-01  -3.8269313890042783e-01  -3.5333424499535054e-01  -3.2440912968394175e-01  -2.9594621106347263e-01  -2.6797343396565898e-01  -2.4051820857714082e-01  -2.1360734367617745e-01  -1.8726697621454691e-01  -1.6152249957282905e-01  -1.3639849460769549e-01  -1.1191866802757433e-01  -8.8105808450002376e-02  -6.4981770051178944e-02  -4.2567563468694170e-02  -2.0883131145952027e-02  5.0589239708187517e-05  2.0215411455445087e-02  3.9596844624795069e-02  5.8089699226440306e-02  7.5965780382077519e-02  -7.9025602760896241e-01  -7.5699303930345263e-01  -7.2375178631194870e-01  -6.9057979126128366e-01  -6.5750732189477246e-01  -6.2456879672987875e-01  -5.9179693967280644e-01  -5.5922426225280730e-01  -5.2688287447202298e-01  -4.9480454857533085e-01  -4.6302075400091769e-01  -4.3156266127693693e-01  -4.0046113365140867e-01  -3.6974670567092383e-01  -3.3944955158986589e-01  -3.0959944541150691e-01  -2.8022571391060846e-01  -2.5135718391826567e-01  -2.2302212522350390e-01  -1.9524819070176055e-01  -1.6806235580892545e-01  -1.4149086013333823e-01  -1.1555915562817809e-01  -9.0291864850487624e-02  -6.5712766738340089e-02  -4.1844792775711959e-02  -1.8710145341534812e-02  3.6697173264702010e-03  2.5273040800565694e-02  4.6081449936411278e-02  6.6058834959792700e-02  8.5236356830800220e-02  1.0345508805081871e-01  -7.9027374609123535e-01  -7.5594935296695720e-01  -7.2165069526648917e-01  -6.8742520558710885e-01  -6.5330284632842273e-01  -6.1931846746431551e-01  -5.8550544272748506e-01  -5.5189722390644147e-01  -5.1852688398452274e-01  -4.8542722293358920e-01  -4.5263075001664477e-01  -4.2016967517629045e-01  -3.8807589131870335e-01  -3.5638094698639261e-01  -3.2511601157654257e-01  -2.9431183396097210e-01  -2.6399869573689483e-01  -2.3420636039527393e-01  -2.0496401986259316e-01  -1.7630024014707091e-01  -1.4824290830950546e-01  -1.2081918341329037e-01  -9.4055455743161043e-02  -6.7977317209670818e-02  -4.2609557616169080e-02  -1.7976165312045711e-02  5.8995407602113192e-03  2.8995056707089684e-02  5.1287678062840625e-02  7.2757121285499438e-02  9.3375787840908497e-02  1.1314823489105486e-01  1.3194385266238290e-01  -7.9028643096887052e-01  -7.5486907109241674e-01  -7.1947969660854971e-01  -6.8416662830438868e-01  -6.4896031633678919e-01  -6.1389626492549876e-01  -5.7900862932507624e-01  -5.4433176094746927e-01  -5.0989970368888560e-01  -4.7574628474997660e-01  -4.4190505695446475e-01  -4.0840928207704635e-01  -3.7529190179625421e-01  -3.4258550463333048e-01  -3.1032228774839010e-01  -2.7853401400579936e-01  -2.4725196527428708e-01  -2.1650689307140364e-01  -1.8632896793375112e-01  -1.5674772915607676e-01  -1.2779203696061980e-01  -9.9490029398696334e-02  -7.1869087696814327e-02  -4.4955811480191121e-02  -1.8776016939932472e-02  6.6452684737425272e-03  3.1283694921369287e-02  5.5115800320716890e-02  7.8117902621070989e-02  1.0026994105952303e-01  1.2154136923237036e-01  1.4194252173650962e-01  1.6134057623789627e-01  -7.9029284042324588e-01  -7.5374923663406013e-01  -7.1723486839140871e-01  -6.8079964807812376e-01  -6.4447472091905889e-01  -6.0829643280709411e-01  -5.7229982651214684e-01  -5.3652021141632256e-01  -5.0099264425673340e-01  -4.6575199856706162e-01  -4.3083289255508195e-01  -3.9626966302051991e-01  -3.6209632688059790e-01  -3.2834654333868263e-01  -2.9505357236633589e-01  -2.6225023026559130e-01  -2.2996884283409427e-01  -1.9824119704299706e-01  -1.6709849243364128e-01  -1.3657129365924403e-01  -1.0668948592596705e-01  -7.7482235138468081e-02  -4.8977955706688225e-02  -2.1204286041926201e-02  5.8119164699971249e-03  3.2044593125026499e-02  5.7468388827772610e-02  8.2058910019869757e-02  1.0579164690549997e-01  1.2864589890903355e-01  1.5059013826175721e-01  1.7163706193063860e-01  1.9163937815488236e-01  -7.9029223501763068e-01  -7.5258792922146234e-01  -7.1491357019678192e-01  -6.7732087139418451e-01  -6.3984182886140095e-01  -6.0251383360602417e-01  -5.6537292883406520e-01  -5.2845545969069119e-01  -4.9179754530710085e-01  -4.5543514383220191e-01  -4.1940397321662382e-01  -3.8373947705413941e-01  -3.4847678034201623e-01  -3.1365064769741602e-01  -2.7929543909736393e-01  -2.4544506416406367e-01  -2.1213293511052947e-01  -1.7939191911368826e-01  -1.4725429109273261e-01  -1.1575168804698044e-01  -8.4915066340025103e-02  -5.4774663193512985e-02  -2.5359964641430754e-02  3.3003212183165265e-03  3.1178274668998862e-02  5.8246794417048275e-02  8.4479513583507582e-02  1.0985110525538849e-01  1.3433612805473466e-01  1.5791330466781023e-01  1.8054963963227549e-01  2.0225961887353566e-01  2.2288479166010294e-01  -7.9028456544338854e-01  -7.5138377904222919e-01  -7.1251327246143270e-01  -6.7372670784926370e-01  -6.3505706260530315e-01  -5.9654289585911846e-01  -5.5822134234419807e-01  -5.2012986072166323e-01  -4.8230569141056367e-01  -4.4478592581440102e-01  -4.0760742304364755e-01  -3.7080677182999644e-01  -3.3442024280069305e-01  -2.9848374375298137e-01  -2.6303277348350412e-01  -2.2810237511393650e-01  -1.9372708887316503e-01  -1.5994090498228011e-01  -1.2677721738808875e-01  -9.4268779221734544e-02  -6.2447660997081877e-02  -3.1345212301645553e-02  -9.9202864559261306e-04  2.8582078634921737e-02  5.7348098558155258e-02  8.5277861675980449e-02  1.1234396324540091e-01  1.3852010403155440e-01  1.6377986166600073e-01  1.8810129368338874e-01  2.1144973945272499e-01  2.3384193776281376e-01  2.5510674084307378e-01  -7.9027010114412377e-01  -7.5013568423886379e-01  -7.1003164100420779e-01  -6.7001368848698906e-01  -6.3011585639331524e-01  -5.9037796243026730e-01  -5.5083831658205407e-01  -5.1153556321427496e-01  -4.7250812382449969e-01  -4.3379427477388349e-01  -3.9543206213369125e-01  -3.5745926227037400e-01  -3.1991333204532274e-01  -2.8283136235400513e-01  -2.4625003079293317e-01  -2.1020555441472968e-01  -1.7473364252885196e-01  -1.3986945007220408e-01  -1.0564753209878247e-01  -7.2101800002218219e-02  -3.9265480136417397e-02  -7.1710751415663410e-03  2.4149670830388492e-02  5.4665805822147140e-02  8.4347191620171180e-02  1.1316455484369808e-01  1.4108941383306289e-01  1.6809445389951011e-01  1.9415221283056111e-01  2.1924003769051476e-01  2.4332151313811196e-01  2.6641583313341971e-01  2.8833819662506904e-01  -7.9024929201338456e-01  -7.4884271540603287e-01  -7.0746645019604038e-01  -6.6617835337350795e-01  -6.2501355846783246e-01  -5.8401321595415989e-01  -5.4321687969875976e-01  -5.0266444379377972e-01  -4.6239556885852917e-01  -4.2244976860608252e-01  -3.8286632382337787e-01  -3.4368424303788664e-01  -3.0494221177077774e-01  -2.6667854528863605e-01  -2.2893114072753470e-01  -1.9173742971339661e-01  -1.5513433144318883e-01  -1.1915820665530219e-01  -8.3844812877298835e-02  -4.9229261321716733e-02  -1.5345975785738153e-02  1.7771346535636001e-02  5.0089771510742953e-02  8.1577165258499673e-02  1.1220222058617513e-01  1.4193451721238620e-01  1.7074445108878072e-01  1.9860364510497147e-01  2.2548354466250803e-01  2.5136076363346455e-01  2.7619704116927296e-01  3.0001433790982274e-01  3.2261321534269921e-01  -7.9022269355793706e-01  -7.4750403200290627e-01  -7.0481551799102116e-01  -6.6221722890718304e-01  -6.1974544210921523e-01  -5.7744270166322231e-01  -5.3534986419944608e-01  -4.9350813221842160e-01  -4.5195846055834232e-01  -4.1074165162716930e-01  -3.6989826891451255e-01  -3.2946859840782350e-01  -2.8949259761143020e-01  -2.5000984816191729e-01  -2.1105950794375300e-01  -1.7268026399983022e-01  -1.3491028620368201e-01  -9.7787182055320943e-02  -6.1347952846202258e-02  -2.5628951346174267e-02  9.3341589146007653e-03  4.3506443218018664e-02  7.6853733615085906e-02  1.0934266931962255e-01  1.4094072766766758e-01  1.7161629331568767e-01  2.0133858984469216e-01  2.3007812911750786e-01  2.5780521461828559e-01  2.8449571198976903e-01  3.1010943531944773e-01  3.3467145450776897e-01  3.5796655596902632e-01  -7.9019091857609158e-01  -7.4611883289290915e-01  -7.0207666690187276e-01  -6.5812679881791691e-01  -6.1430668329383964e-01  -5.7066031197708833e-01  -5.2722989705743839e-01  -4.8405800326336745e-01  -4.4118693159623285e-01  -3.9865882296322519e-01  -3.5651557098940079e-01  -3.1479878442691689e-01  -2.7354973635143154e-01  -2.3280931709700561e-01  -1.9261798680079220e-01  -1.5301572899548024e-01  -1.1404200521312230e-01  -7.5735710908086062e-02  -3.8135132811670414e-02  -1.2779076719909854e-03  3.4799017810021649e-02  7.0059426641994382e-02  1.0446787066726587e-01  1.3798971385363296e-01  1.7059116754839071e-01  2.0223936890340571e-01  2.3290231533028044e-01  2.6254935666643614e-01  2.9114960418553087e-01  3.1867816298737323e-01  3.4509283886354719e-01  3.7042217195254173e-01  3.9443393360175155e-01  -7.9015460988108699e-01  -7.4468632548218228e-01  -6.9924769512559692e-01  -6.5390348099685602e-01  -6.0869234530436178e-01  -5.6365977747203488e-01  -5.1884939382021378e-01  -4.7430517162201657e-01  -4.3007080749579868e-01  -3.8618982903893673e-01  -3.4270550653528165e-01  -2.9966081642232234e-01  -2.5709839087685971e-01  -2.1506047138633816e-01  -1.7358886207705515e-01  -1.3272488434961952e-01  -9.2509332767890584e-02  -5.2982432453434036e-02  -1.4183797972052936e-02  2.3847606518973052e-02  6.1073506306543845e-02  9.7456355474157930e-02  1.3295937679970132e-01  1.6754660760345180e-01  2.0118293915191082e-01  2.3383420474858191e-01  2.6546711788534877e-01  2.9604981166601280e-01  3.2555015117708747e-01  3.5394246596602402e-01  3.8118245996643557e-01  4.0730252261138139e-01  4.3205204718987339e-01  -7.9011442476869109e-01  -7.4320570638471173e-01  -6.9632635716142510e-01  -6.4954361044568698e-01  -6.0289736457135934e-01  -5.5643465502522305e-01  -5.1020054827835337e-01  -4.6424048210995245e-01  -4.1859959624244547e-01  -3.7332285171827390e-01  -3.2845494109295253e-01  -2.8404025292551371e-01  -2.4012282186407749e-01  -1.9674628308930767e-01  -1.5395382672535082e-01  -1.1178815385054147e-01  -7.0291434021284405e-02  -2.9505264498650430e-02  1.0529368956718632e-02  4.9772130130848580e-02  8.8183369933931666e-02  1.2572416498968320e-01  1.6235635784752295e-01  1.9804260501822174e-01  2.3274642035053944e-01  2.6643227320691881e-01  2.9906553110750572e-01  3.3061305075779907e-01  3.6104139090957804e-01  3.9032408415820735e-01  4.1841462444940275e-01  4.4534964432284369e-01  4.7085866438152019e-01  -7.9007102722732603e-01  -7.4167615006841570e-01  -6.9331035096575722e-01  -6.4504342640338730e-01  -5.9691653857824734e-01  -5.4897831665418417e-01  -5.0127532181038714e-01  -4.5385449877028050e-01  -4.0676247645169150e-01  -3.6004569500566297e-01  -3.1375031412360777e-01  -2.6792217851260075e-01  -2.2260676855889505e-01  -1.7784915584081246e-01  -1.3369395888522623e-01  -9.0185300859840667e-02  -4.7366769064772996e-02  -5.2813763440927586e-03  3.6028475831546336e-02  7.6521033198829580e-02  1.1615522437552817e-01  1.5489069820253981e-01  1.9268786376925523e-01  2.2950794018575921e-01  2.6531300363470384e-01  3.0006609585569538e-01  3.3373117177812733e-01  3.6627374611414537e-01  3.9765900307658458e-01  4.2785964770908641e-01  4.5682683757045534e-01  4.8460185488938085e-01  5.1089271015813287e-01  -7.9002508550684869e-01  -7.4009680292417745e-01  -6.9019730971141713e-01  -6.4039906280448478e-01  -5.9074451565758079e-01  -5.4128393884493042e-01  -4.9206543211320247e-01  -4.4313749271882474e-01  -3.9454828398564734e-01  -3.4634577010370438e-01  -2.9857762226407247e-01  -2.5129118512541360e-01  -2.0453342814126171e-01  -1.5835090232560967e-01  -1.1278969759637719e-01  -6.7895402429379303e-02  -2.3713065622527230e-02  1.9712839780969882e-02  6.2338450776767251e-02  1.0412054763732320e-01  1.4501658725197003e-01  1.8498473873476634e-01  2.2398392271476136e-01  2.6197386229161207e-01  2.9891513325625868e-01  3.3476928276114643e-01  3.6949878193791336e-01  4.0306773137719659e-01  4.3543986312201471e-01  4.6658701254059093e-01  4.9645785277422422e-01  5.2509873269575746e-01  5.5219435871511680e-01  -7.8997727353589142e-01  -7.3846678114758957e-01  -6.8698479681334623e-01  -6.3560654112781600e-01  -5.8437578617572405e-01  -5.3334449236209780e-01  -4.8256234171993340e-01  -4.3207942929615900e-01  -3.8194549758073809e-01  -3.3221007934989571e-01  -2.8292240144527603e-01  -2.3413135230395118e-01  -1.8588543406517277e-01  -1.3823272077652130e-01  -9.1220817550499322e-02  -4.4896822431412797e-02  6.9270930172776746e-04  4.5501798425871320e-02  8.9485073129431325e-02  1.3259779933212851e-01  1.7479591130676803e-01  2.1603604508591961e-01  2.5627557644855897e-01  2.9547267236410929e-01  3.3358634361126677e-01  3.7057657304946828e-01  4.0640427253929151e-01  4.4103204972464988e-01  4.7442209650817130e-01  5.0654532294687149e-01  5.3734774476184710e-01  5.6688120173763434e-01  5.9480512988958179e-01  -7.8992827522126863e-01  -7.3678517130767718e-01  -6.8367030316971722e-01  -6.3066176482988545e-01  -5.7780467462664076e-01  -5.2515273234915028e-01  -4.7275724630635407e-01  -4.2066995465192575e-01  -3.6894222370210766e-01  -3.1762519929690208e-01  -2.6676970814892192e-01  -2.1642622659047583e-01  -1.6664483361464111e-01  -1.1747517072006275e-01  -6.8966403092130257e-02  -2.1167183899848785e-02  2.5874378649965279e-02  7.2110751607004919e-02  1.1749500549436992e-01  1.6198084146610220e-01  2.0552261891940088e-01  2.4807538629148079e-01  2.8959491714493008e-01  3.3003776129385481e-01  3.6936129877698515e-01  4.0752387657979977e-01  4.4448476827285283e-01  4.8020500332410804e-01  5.1464513476749985e-01  5.4777507654244584e-01  5.7953798557544722e-01  6.0999162039702659e-01  6.3876799000841977e-01  -7.8987879093899382e-01  -7.3505103273307926e-01  -6.8025124575424900e-01  -6.2556051464138540e-01  -5.7102533213249718e-01  -5.1670118845388657e-01  -4.6264106273972327e-01  -4.0889838189781585e-01  -3.5552618088521110e-01  -3.0257726326522322e-01  -2.5010410016764545e-01  -1.9815880048932286e-01  -1.4679306506378342e-01  -9.6058148351042039e-02  -4.6004821834539411e-02  3.3166590755429604e-03  5.1856585087910134e-02  9.9565820202486777e-02  1.4639582667563750e-01  1.9229868890301621e-01  2.3722713784188970e-01  2.8113457887185006e-01  3.2397512545026802e-01  3.6570364908270775e-01  4.0627583323522559e-01  4.4564831664314825e-01  4.8377865317570462e-01  5.2062620348344457e-01  5.5614977246223818e-01  5.9031819060556701e-01  6.2307152289698431e-01  6.5447387362148324e-01  6.8412745773289041e-01  -7.8982954560856911e-01  -7.3326340092157216e-01  -6.7672496672557747e-01  -6.2029844399395206e-01  -5.6403172880478958e-01  -5.0798215465596774e-01  -4.5220441676484435e-01  -3.9675367689891894e-01  -3.4168468376250083e-01  -2.8705194365667830e-01  -2.3290961721001141e-01  -1.7931149134524935e-01  -1.2631093480193933e-01  -7.3960861875019046e-02  -2.2313698192096665e-02  2.8578649651349985e-02  7.8664821158756393e-02  1.2789402595209798e-01  1.7621606550250829e-01  2.2358135376233329e-01  2.6994093836765770e-01  3.1524652544139337e-01  3.5945051045584014e-01  4.0250602600472191e-01  4.4436699397119978e-01  4.8498827334696409e-01  5.2432561664035338e-01  5.6233662116826255e-01  5.9897822448561033e-01  6.3421806910210266e-01  6.6799286009970182e-01  7.0037346859064797e-01  7.3092971568504361e-01  -7.8978129779685946e-01  -7.3142129114372068e-01  -6.7308873220834120e-01  -6.1487107384405271e-01  -5.5681764545731416e-01  -4.9898767855714832e-01  -4.4143763034380618e-01  -3.8422444394051425e-01  -3.2740462718647501e-01  -2.7103443456519749e-01  -2.1516976197312504e-01  -1.5986612082128412e-01  -1.0517859514184952e-01  -5.1161807559391592e-02  2.1301124221626555e-03  5.4643555986274739e-02  1.0632545908417329e-01  1.5712332338016516e-01  2.0698523489051174e-01  2.5585988155050748e-01  3.0369657142075274e-01  3.5044525457554848e-01  3.9605655074999796e-01  4.4048179419541461e-01  4.8367308308505957e-01  5.2558342840927064e-01  5.6616670069247088e-01  6.0537863741832432e-01  6.4317418271731319e-01  6.7951967002235159e-01  7.1434813811833209e-01  7.4773763411159444e-01  7.7922272860679143e-01  -7.8973484865641885e-01  -7.2952370112056952e-01  -6.6933972947077758e-01  -6.0927378577778202e-01  -5.4937666382730954e-01  -4.8970954957976065e-01  -4.3033070835092585e-01  -3.7129891115582397e-01  -3.1267247043959012e-01  -2.5450943471272403e-01  -1.9686748169451615e-01  -1.3980389492463596e-01  -8.3375522654225820e-02  -2.7638746192112318e-02  2.7350549222909970e-02  8.1536999171719804e-02  1.3486578122344389e-01  1.8728263297287778e-01  2.3873386786363476e-01  2.8916639008997241e-01  3.3852771030436285e-01  3.8676596478811559e-01  4.3382994019380866e-01  4.7966911589977085e-01  5.2423370767985333e-01  5.6747481276448841e-01  6.0934434478757482e-01  6.4979609153825857e-01  6.8878287322304343e-01  7.2626957357286326e-01  7.6218521844582043e-01  7.9661542417636855e-01  8.2905636980524089e-01  -7.8969105123324757e-01  -7.2756961138940390e-01  -6.6547506142146329e-01  -6.0350181279189019e-01  -5.4170215526544518e-01  -4.8013928665531996e-01  -4.1887332574440594e-01  -3.5796491727542845e-01  -2.9747422345852509e-01  -2.3746113296302931e-01  -1.7798515274434915e-01  -1.1910538745723037e-01  -6.0880500242067648e-02  -3.3686835172672125e-03  5.3372367534744947e-02  1.0928547693539037e-01  1.6431400629141152e-01  2.1840187016905349e-01  2.7149354950776544e-01  3.2353410446824998e-01  3.7446918824025849e-01  4.2424506439448645e-01  4.7280863020904168e-01  5.2010745480162113e-01  5.6608981510255041e-01  6.1070484229916056e-01  6.5390243479812349e-01  6.9563433890998083e-01  7.3585111203354536e-01  7.7451604482352399e-01  8.1155376890446895e-01  8.4705782970998866e-01  8.8048255628155569e-01  -7.8965081239639723e-01  -7.2555797959023871e-01  -6.6149173486641066e-01  -5.9755022409922942e-01  -5.3378726475397897e-01  -4.7026812252381789e-01  -4.0705481227541945e-01  -3.4420989644040539e-01  -2.8179543126154771e-01  -2.1987319187023943e-01  -1.5850456283145589e-01  -9.7750520422435316e-02  -3.7671595266458247e-02  2.1672154443101610e-02  8.0221166862934346e-02  1.3791639574276932e-01  1.9469932616525082e-01  2.5051198754783360e-01  3.0529696515555466e-01  3.5899741158885839e-01  4.1155705967999795e-01  4.6292023989581471e-01  5.1303190224409700e-01  5.6183765067951086e-01  6.0928378176524967e-01  6.5531741943621635e-01  6.9988637229870587e-01  7.4294027155484121e-01  7.8442733582094482e-01  8.2430911151848218e-01  8.6250536335287342e-01  8.9911789092659311e-01  9.3355539135021437e-01  -7.8961509385828244e-01  -7.2348773262277621e-01  -6.5738664294422366e-01  -5.9141390823797368e-01  -5.2562489747673713e-01  -4.6008699427908795e-01  -3.9486414680458881e-01  -3.3002087539470865e-01  -2.6562117326459361e-01  -2.0172874859135159e-01  -1.3840691314864279e-01  -7.5718567133970960e-02  -1.3726163377261402e-02  4.7508317092261665e-02  1.0792338639948179e-01  1.6745806637415123e-01  2.2605190176616968e-01  2.8364