<?xml version="1.0"?>
<VTKFile type="UnstructuredGrid"  version="0.1"  >
<UnstructuredGrid>
<Piece  NumberOfPoints="16641" NumberOfCells="32768">
<Points>
<DataArray  type="Float64"  NumberOfComponents="3"  format="ascii">0 0 0  0.0078125 0 0  0.015625 0 0  0.0234375 0 0  0.03125 0 0  0.0390625 0 0  0.046875 0 0  0.0546875 0 0  0.0625 0 0  0.0703125 0 0  0.078125 0 0  0.0859375 0 0  0.09375 0 0  0.1015625 0 0  0.109375 0 0  0.1171875 0 0  0.125 0 0  0.1328125 0 0  0.140625 0 0  0.1484375 0 0  0.15625 0 0  0.1640625 0 0  0.171875 0 0  0.1796875 0 0  0.1875 0 0  0.1953125 0 0  0.203125 0 0  0.2109375 0 0  0.21875 0 0  0.2265625 0 0  0.234375 0 0  0.2421875 0 0  0.25 0 0  0.2578125 0 0  0.265625 0 0  0.2734375 0 0  0.28125 0 0  0.2890625 0 0  0.296875 0 0  0.3046875 0 0  0.3125 0 0  0.3203125 0 0  0.328125 0 0  0.3359375 0 0  0.34375 0 0  0.3515625 0 0  0.359375 0 0  0.3671875 0 0  0.375 0 0  0.3828125 0 0  0.390625 0 0  0.3984375 0 0  0.40625 0 0  0.4140625 0 0  0.421875 0 0  0.4296875 0 0  0.4375 0 0  0.4453125 0 0  0.453125 0 0  0.4609375 0 0  0.46875 0 0  0.4765625 0 0  0.484375 0 0  0.4921875 0 0  0.5 0 0  0.5078125 0 0  0.515625 0 0  0.5234375 0 0  0.53125 0 0  0.5390625 0 0  0.546875 0 0  0.5546875 0 0  0.5625 0 0  0.5703125 0 0  0.578125 0 0  0.5859375 0 0  0.59375 0 0  0.6015625 0 0  0.609375 0 0  0.6171875 0 0  0.625 0 0  0.6328125 0 0  0.640625 0 0  0.6484375 0 0  0.65625 0 0  0.6640625 0 0  0.671875 0 0  0.6796875 0 0  0.6875 0 0  0.6953125 0 0  0.703125 0 0  0.7109375 0 0  0.71875 0 0  0.7265625 0 0  0.734375 0 0  0.7421875 0 0  0.75 0 0  0.7578125 0 0  0.765625 0 0  0.7734375 0 0  0.78125 0 0  0.7890625 0 0  0.796875 0 0  0.8046875 0 0  0.8125 0 0  0.8203125 0 0  0.828125 0 0  0.8359375 0 0  0.84375 0 0  0.8515625 0 0  0.859375 0 0  0.8671875 0 0  0.875 0 0  0.8828125 0 0  0.890625 0 0  0.8984375 0 0  0.90625 0 0  0.9140625 0 0  0.921875 0 0  0.9296875 0 0  0.9375 0 0  0.9453125 0 0  0.953125 0 0  0.9609375 0 0  0.96875 0 0  0.9765625 0 0  0.984375 0 0  0.9921875 0 0  1 0 0  0 0.0078125 0  0.0078125 0.0078125 0  0.015625 0.0078125 0  0.0234375 0.0078125 0  0.03125 0.0078125 0  0.0390625 0.0078125 0  0.046875 0.0078125 0  0.0546875 0.0078125 0  0.0625 0.0078125 0  0.0703125 0.0078125 0  0.078125 0.0078125 0  0.0859375 0.0078125 0  0.09375 0.0078125 0  0.1015625 0.0078125 0  0.109375 0.0078125 0  0.1171875 0.0078125 0  0.125 0.0078125 0  0.1328125 0.0078125 0  0.140625 0.0078125 0  0.1484375 0.0078125 0  0.15625 0.0078125 0  0.1640625 0.0078125 0  0.171875 0.0078125 0  0.1796875 0.0078125 0  0.1875 0.0078125 0  0.1953125 0.0078125 0  0.203125 0.0078125 0  0.2109375 0.0078125 0  0.21875 0.0078125 0  0.2265625 0.0078125 0  0.234375 0.0078125 0  0.2421875 0.0078125 0  0.25 0.0078125 0  0.2578125 0.0078125 0  0.265625 0.0078125 0  0.2734375 0.0078125 0  0.28125 0.0078125 0  0.2890625 0.0078125 0  0.296875 0.0078125 0  0.3046875 0.0078125 0  0.3125 0.0078125 0  0.3203125 0.0078125 0  0.328125 0.0078125 0  0.3359375 0.0078125 0  0.34375 0.0078125 0  0.3515625 0.0078125 0  0.359375 0.0078125 0  0.3671875 0.0078125 0  0.375 0.0078125 0  0.3828125 0.0078125 0  0.390625 0.0078125 0  0.3984375 0.0078125 0  0.40625 0.0078125 0  0.4140625 0.0078125 0  0.421875 0.0078125 0  0.4296875 0.0078125 0  0.4375 0.0078125 0  0.4453125 0.0078125 0  0.453125 0.0078125 0  0.4609375 0.0078125 0  0.46875 0.0078125 0  0.4765625 0.0078125 0  0.484375 0.0078125 0  0.4921875 0.0078125 0  0.5 0.0078125 0  0.5078125 0.0078125 0  0.515625 0.0078125 0  0.5234375 0.0078125 0  0.53125 0.0078125 0  0.5390625 0.0078125 0  0.546875 0.0078125 0  0.5546875 0.0078125 0  0.5625 0.0078125 0  0.5703125 0.0078125 0  0.578125 0.0078125 0  0.5859375 0.0078125 0  0.59375 0.0078125 0  0.6015625 0.0078125 0  0.609375 0.0078125 0  0.6171875 0.0078125 0  0.625 0.0078125 0  0.6328125 0.0078125 0  0.640625 0.0078125 0  0.6484375 0.0078125 0  0.65625 0.0078125 0  0.6640625 0.0078125 0  0.671875 0.0078125 0  0.6796875 0.0078125 0  0.6875 0.0078125 0  0.6953125 0.0078125 0  0.703125 0.0078125 0  0.7109375 0.0078125 0  0.71875 0.0078125 0  0.7265625 0.0078125 0  0.734375 0.0078125 0  0.7421875 0.0078125 0  0.75 0.0078125 0  0.7578125 0.0078125 0  0.765625 0.0078125 0  0.7734375 0.0078125 0  0.78125 0.0078125 0  0.7890625 0.0078125 0  0.796875 0.0078125 0  0.8046875 0.0078125 0  0.8125 0.0078125 0  0.8203125 0.0078125 0  0.828125 0.0078125 0  0.8359375 0.0078125 0  0.84375 0.0078125 0  0.8515625 0.0078125 0  0.859375 0.0078125 0  0.8671875 0.0078125 0  0.875 0.0078125 0  0.8828125 0.0078125 0  0.890625 0.0078125 0  0.8984375 0.0078125 0  0.90625 0.0078125 0  0.9140625 0.0078125 0  0.921875 0.0078125 0  0.9296875 0.0078125 0  0.9375 0.0078125 0  0.9453125 0.0078125 0  0.953125 0.0078125 0  0.9609375 0.0078125 0  0.96875 0.0078125 0  0.9765625 0.0078125 0  0.984375 0.0078125 0  0.9921875 0.0078125 0  1 0.0078125 0  0 0.015625 0  0.0078125 0.015625 0  0.015625 0.015625 0  0.0234375 0.015625 0  0.03125 0.015625 0  0.0390625 0.015625 0  0.046875 0.015625 0  0.0546875 0.015625 0  0.0625 0.015625 0  0.0703125 0.015625 0  0.078125 0.015625 0  0.0859375 0.015625 0  0.09375 0.015625 0  0.1015625 0.015625 0  0.109375 0.015625 0  0.1171875 0.015625 0  0.125 0.015625 0  0.1328125 0.015625 0  0.140625 0.015625 0  0.1484375 0.015625 0  0.15625 0.015625 0  0.1640625 0.015625 0  0.171875 0.015625 0  0.1796875 0.015625 0  0.1875 0.015625 0  0.1953125 0.015625 0  0.203125 0.015625 0  0.2109375 0.015625 0  0.21875 0.015625 0  0.2265625 0.015625 0  0.234375 0.015625 0  0.2421875 0.015625 0  0.25 0.015625 0  0.2578125 0.015625 0  0.265625 0.015625 0  0.2734375 0.015625 0  0.28125 0.015625 0  0.2890625 0.015625 0  0.296875 0.015625 0  0.3046875 0.015625 0  0.3125 0.015625 0  0.3203125 0.015625 0  0.328125 0.015625 0  0.3359375 0.015625 0  0.34375 0.015625 0  0.3515625 0.015625 0  0.359375 0.015625 0  0.3671875 0.015625 0  0.375 0.015625 0  0.3828125 0.015625 0  0.390625 0.015625 0  0.3984375 0.015625 0  0.40625 0.015625 0  0.4140625 0.015625 0  0.421875 0.015625 0  0.4296875 0.015625 0  0.4375 0.015625 0  0.4453125 0.015625 0  0.453125 0.015625 0  0.4609375 0.015625 0  0.46875 0.015625 0  0.4765625 0.015625 0  0.484375 0.015625 0  0.4921875 0.015625 0  0.5 0.015625 0  0.5078125 0.015625 0  0.515625 0.015625 0  0.5234375 0.015625 0  0.53125 0.015625 0  0.5390625 0.015625 0  0.546875 0.015625 0  0.5546875 0.015625 0  0.5625 0.015625 0  0.5703125 0.015625 0  0.578125 0.015625 0  0.5859375 0.015625 0  0.59375 0.015625 0  0.6015625 0.015625 0  0.609375 0.015625 0  0.6171875 0.015625 0  0.625 0.015625 0  0.6328125 0.015625 0  0.640625 0.015625 0  0.6484375 0.015625 0  0.65625 0.015625 0  0.6640625 0.015625 0  0.671875 0.015625 0  0.6796875 0.015625 0  0.6875 0.015625 0  0.6953125 0.015625 0  0.703125 0.015625 0  0.7109375 0.015625 0  0.71875 0.015625 0  0.7265625 0.015625 0  0.734375 0.015625 0  0.7421875 0.015625 0  0.75 0.015625 0  0.7578125 0.015625 0  0.765625 0.015625 0  0.7734375 0.015625 0  0.78125 0.015625 0  0.7890625 0.015625 0  0.796875 0.015625 0  0.8046875 0.015625 0  0.8125 0.015625 0  0.8203125 0.015625 0  0.828125 0.015625 0  0.8359375 0.015625 0  0.84375 0.015625 0  0.8515625 0.015625 0  0.859375 0.015625 0  0.8671875 0.015625 0  0.875 0.015625 0  0.8828125 0.015625 0  0.890625 0.015625 0  0.8984375 0.015625 0  0.90625 0.015625 0  0.9140625 0.015625 0  0.921875 0.015625 0  0.9296875 0.015625 0  0.9375 0.015625 0  0.9453125 0.015625 0  0.953125 0.015625 0  0.9609375 0.015625 0  0.96875 0.015625 0  0.9765625 0.015625 0  0.984375 0.015625 0  0.9921875 0.015625 0  1 0.015625 0  0 0.0234375 0  0.0078125 0.0234375 0  0.015625 0.0234375 0  0.0234375 0.0234375 0  0.03125 0.0234375 0  0.0390625 0.0234375 0  0.046875 0.0234375 0  0.0546875 0.0234375 0  0.0625 0.0234375 0  0.0703125 0.0234375 0  0.078125 0.0234375 0  0.0859375 0.0234375 0  0.09375 0.0234375 0  0.1015625 0.0234375 0  0.109375 0.0234375 0  0.1171875 0.0234375 0  0.125 0.0234375 0  0.1328125 0.0234375 0  0.140625 0.0234375 0  0.1484375 0.0234375 0  0.15625 0.0234375 0  0.1640625 0.0234375 0  0.171875 0.0234375 0  0.1796875 0.0234375 0  0.1875 0.0234375 0  0.1953125 0.0234375 0  0.203125 0.0234375 0  0.2109375 0.0234375 0  0.21875 0.0234375 0  0.2265625 0.0234375 0  0.234375 0.0234375 0  0.2421875 0.0234375 0  0.25 0.0234375 0  0.2578125 0.0234375 0  0.265625 0.0234375 0  0.2734375 0.0234375 0  0.28125 0.0234375 0  0.2890625 0.0234375 0  0.296875 0.0234375 0  0.3046875 0.0234375 0  0.3125 0.0234375 0  0.3203125 0.0234375 0  0.328125 0.0234375 0  0.3359375 0.0234375 0  0.34375 0.0234375 0  0.3515625 0.0234375 0  0.359375 0.0234375 0  0.3671875 0.0234375 0  0.375 0.0234375 0  0.3828125 0.0234375 0  0.390625 0.0234375 0  0.3984375 0.0234375 0  0.40625 0.0234375 0  0.4140625 0.0234375 0  0.421875 0.0234375 0  0.4296875 0.0234375 0  0.4375 0.0234375 0  0.4453125 0.0234375 0  0.453125 0.0234375 0  0.4609375 0.0234375 0  0.46875 0.0234375 0  0.4765625 0.0234375 0  0.484375 0.0234375 0  0.4921875 0.0234375 0  0.5 0.0234375 0  0.5078125 0.0234375 0  0.515625 0.0234375 0  0.5234375 0.0234375 0  0.53125 0.0234375 0  0.5390625 0.0234375 0  0.546875 0.0234375 0  0.5546875 0.0234375 0  0.5625 0.0234375 0  0.5703125 0.0234375 0  0.578125 0.0234375 0  0.5859375 0.0234375 0  0.59375 0.0234375 0  0.6015625 0.0234375 0  0.609375 0.0234375 0  0.6171875 0.0234375 0  0.625 0.0234375 0  0.6328125 0.0234375 0  0.640625 0.0234375 0  0.6484375 0.0234375 0  0.65625 0.0234375 0  0.6640625 0.0234375 0  0.671875 0.0234375 0  0.6796875 0.0234375 0  0.6875 0.0234375 0  0.6953125 0.0234375 0  0.703125 0.0234375 0  0.7109375 0.0234375 0  0.71875 0.0234375 0  0.7265625 0.0234375 0  0.734375 0.0234375 0  0.7421875 0.0234375 0  0.75 0.0234375 0  0.7578125 0.0234375 0  0.765625 0.0234375 0  0.7734375 0.0234375 0  0.78125 0.0234375 0  0.7890625 0.0234375 0  0.796875 0.0234375 0  0.8046875 0.0234375 0  0.8125 0.0234375 0  0.8203125 0.0234375 0  0.828125 0.0234375 0  0.8359375 0.0234375 0  0.84375 0.0234375 0  0.8515625 0.0234375 0  0.859375 0.0234375 0  0.8671
[...]
<PointData  Scalars="f_1277"> 
<DataArray  type="Float64"  Name="f_1277"  format="ascii">-7.8990271700796499e-01  -7.8209059500784461e-01  -7.7427873454192120e-01  -7.6646773169418903e-01  -7.5865809271577311e-01  -7.5085030536133834e-01  -7.4304486462496344e-01  -7.3524226059234699e-01  -7.2744298078573644e-01  -7.1964751053419118e-01  -7.1185633323904585e-01  -7.0406993068816170e-01  -6.9628878327504573e-01  -6.8851337017106540e-01  -6.8074416945589677e-01  -6.7298165821685230e-01  -6.6522631262297083e-01  -6.5747860798006430e-01  -6.4973901877068185e-01  -6.4200801868208679e-01  -6.3428608062429104e-01  -6.2657367674084785e-01  -6.1887127841348932e-01  -6.1117935626127184e-01  -6.0349838013587254e-01  -5.9582881911364871e-01  -5.8817114148391758e-01  -5.8052581473674281e-01  -5.7289330554629125e-01  -5.6527407975474575e-01  -5.5766860235312110e-01  -5.5007733746261867e-01  -5.4250074831235107e-01  -5.3493929721948408e-01  -5.2739344556578027e-01  -5.1986365377474364e-01  -5.1235038128884514e-01  -5.0485408654406350e-01  -4.9737522694698955e-01  -4.8991425884833545e-01  -4.8247163751947370e-01  -4.7504781712482164e-01  -4.6764325069822466e-01  -4.6025839011486025e-01  -4.5289368606674002e-01  -4.4554958803487044e-01  -4.3822654426323154e-01  -4.3092500173197734e-01  -4.2364540612972557e-01  -4.1638820182775260e-01  -4.0915383185077187e-01  -4.0194273785109735e-01  -3.9475536008036211e-01  -3.8759213736134479e-01  -3.8045350706141629e-01  -3.7333990506216036e-01  -3.6625176573480894e-01  -3.5918952190826070e-01  -3.5215360484216263e-01  -3.4514444420054669e-01  -3.3816246801866467e-01  -3.3120810267828643e-01  -3.2428177287744464e-01  -3.1738390160006541e-01  -3.1051491008902976e-01  -3.0367521781560397e-01  -2.9686524245046991e-01  -2.9008539983428039e-01  -2.8333610394745645e-01  -2.7661776688199785e-01  -2.6993079880928633e-01  -2.6327560795334520e-01  -2.5665260055761863e-01  -2.5006218085690191e-01  -2.4350475104696476e-01  -2.3698071125345219e-01  -2.3049045950280847e-01  -2.2403439169071615e-01  -2.1761290155316926e-01  -2.1122638063475110e-01  -2.0487521825888841e-01  -1.9855980149902935e-01  -1.9228051514481645e-01  -1.8603774167627793e-01  -1.7983186123079842e-01  -1.7366325157476731e-01  -1.6753228807305712e-01  -1.6143934366116663e-01  -1.5538478881513093e-01  -1.4936899152200972e-01  -1.4339231725511639e-01  -1.3745512894309597e-01  -1.3155778694305170e-01  -1.2570064901794162e-01  -1.1988407030760180e-01  -1.1410840330497542e-01  -1.0837399783603582e-01  -1.0268120103305912e-01  -9.7030357319232013e-02  -9.1421808386440137e-02  -8.5855893182018500e-02  -8.0332947893115764e-02  -7.4853305935002556e-02  -6.9417297948959955e-02  -6.4025251788083298e-02  -5.8677492530319335e-02  -5.3374342476058177e-02  -4.8116121167964543e-02  -4.2903145405542173e-02  -3.7735729284101877e-02  -3.2614184230692227e-02  -2.7538819069024768e-02  -2.2509940089622038e-02  -1.7527851158284532e-02  -1.2592853837630539e-02  -7.7052475702524877e-03  -2.8653298880404504e-03  1.9266032762574083e-03  6.6702572311367276e-03  1.1365337966755686e-02  1.6011551047836060e-02  2.0608604073367776e-02  2.5156190805077409e-02  2.9654011165199258e-02  3.4101907678656680e-02  3.8498651407436288e-02  4.2845678047762716e-02  4.7151927780161536e-02  5.1271608682244993e-02  -7.8990289542201542e-01  -7.8202946404622697e-01  -7.7415630652271394e-01  -7.6628407226757145e-01  -7.5841321325884858e-01  -7.5054422798284559e-01  -7.4267761037989022e-01  -7.3481385187486548e-01  -7.2695344255497696e-01  -7.1909687069171779e-01  -7.1124462297977631e-01  -7.0339718470155987e-01  -6.9555503987102274e-01  -6.8771867135966780e-01  -6.7988856099704453e-01  -6.7206518965035345e-01  -6.6424903728583240e-01  -6.5644058301523156e-01  -6.4864030512989657e-01  -6.4084868112471516e-01  -6.3306618771370815e-01  -6.2529330083887069e-01  -6.1753049567334406e-01  -6.0977824661988855e-01  -6.0203702730554309e-01  -5.9430731057295860e-01  -5.8658956846906896e-01  -5.7888427223159633e-01  -5.7119189227329636e-01  -5.6351289816496419e-01  -5.5584775861672719e-01  -5.4819694145838527e-01  -5.4056091361841552e-01  -5.3294014110255483e-01  -5.2533508897106007e-01  -5.1774622131579673e-01  -5.1017400123647960e-01  -5.0261889081634437e-01  -4.9508135109773049e-01  -4.8756184205673275e-01  -4.8006082257814681e-01  -4.7257875042933806e-01  -4.6511608223469048e-01  -4.5767327344887532e-01  -4.5025077833084631e-01  -4.4284904991670920e-01  -4.3546853999313107e-01  -4.2810969907012658e-01  -4.2077297635380873e-01  -4.1345881971912074e-01  -4.0616767568202317e-01  -3.9889998937208776e-01  -3.9165620450448224e-01  -3.8443676335204602e-01  -3.7724210671726183e-01  -3.7007267390378995e-01  -3.6292890268876143e-01  -3.5581122929330711e-01  -3.4872008835497564e-01  -3.4165591289850439e-01  -3.3461913430698476e-01  -3.2761018229339467e-01  -3.2062948487108001e-01  -3.1367746832480115e-01  -3.0675455718165878e-01  -2.9986117418145369e-01  -2.9299774024757541e-01  -2.8616467445715299e-01  -2.7936239401168750e-01  -2.7259131420716365e-01  -2.6585184840429804e-01  -2.5914440799887689e-01  -2.5246940239130683e-01  -2.4582723895729547e-01  -2.3921832301725371e-01  -2.3264305780650282e-01  -2.2610184444516546e-01  -2.1959508190791860e-01  -2.1312316699418990e-01  -2.0668649429760944e-01  -2.0028545617670263e-01  -1.9392044272445230e-01  -1.8759184173853000e-01  -1.8130003869199604e-01  -1.7504541670347115e-01  -1.6882835650815778e-01  -1.6264923642854778e-01  -1.5650843234628053e-01  -1.5040631767341114e-01  -1.4434326332475855e-01  -1.3831963769104677e-01  -1.3233580661156966e-01  -1.2639213334877292e-01  -1.2048897856316731e-01  -1.1462670028899959e-01  -1.0880565391145519e-01  -1.0302619214496445e-01  -9.7288665012507811e-02  -9.1593419827806513e-02  -8.5940801178236784e-02  -8.0331150910820590e-02  -7.4764808120364706e-02  -6.9242109141134947e-02  -6.3763387542041375e-02  -5.8328974124956925e-02  -5.2939196930565709e-02  -4.7594381247124375e-02  -4.2294849628513861e-02  -3.7040921919346978e-02  -3.1832915291890487e-02  -2.6671144293517374e-02  -2.1555920911887429e-02  -1.6487554657724949e-02  -1.1466352672890378e-02  -6.4926198688039505e-03  -1.5666591064663179e-03  3.3112285730906485e-03  8.1407436475684717e-03  1.2921587712527778e-02  1.7653462932239735e-02  2.2336071470700096e-02  2.6969113958232722e-02  3.1552287135713793e-02  3.6085298049525857e-02  4.0567766869739605e-02  4.4999437073978743e-02  4.9380612784844610e-02  5.3704470016453197e-02  5.7995983140950842e-02  -7.8990319495250805e-01  -7.8196802835460322e-01  -7.7403311636898531e-01  -7.6609915114002103e-01  -7.5816657617761041e-01  -7.5023589942787805e-01  -7.4230761246943899e-01  -7.3438220906329710e-01  -7.2646018159564085e-01  -7.1854202110320398e-01  -7.1062821740183724e-01  -7.0271925911004895e-01  -6.9481563373317268e-01  -6.8691782773955856e-01  -6.7902632662759443e-01  -6.7114161498216318e-01  -6.6326417651989700e-01  -6.5539449412421247e-01  -6.4753304987127758e-01  -6.3968032504813144e-01  -6.3183680016409594e-01  -6.2400295495649050e-01  -6.1617926839153436e-01  -6.0836621866115814e-01  -6.0056428317634636e-01  -5.9277393855755978e-01  -5.8499566062266961e-01  -5.7722992437274878e-01  -5.6947720397604928e-01  -5.6173797275045634e-01  -5.5401270314455564e-01  -5.4630186671760650e-01  -5.3860593411844848e-01  -5.3092537506359871e-01  -5.2326065831458723e-01  -5.1561225165461233e-01  -5.0798062186463400e-01  -5.0036623469896457e-01  -4.9276955486040863e-01  -4.8519104597500096e-01  -4.7763117056639287e-01  -4.7009039002990594e-01  -4.6256916460634495e-01  -4.5506795335550754e-01  -4.4758721412949998e-01  -4.4012740354577262e-01  -4.3268897696005432e-01  -4.2527238843902271e-01  -4.1787809073285337e-01  -4.1050653524758823e-01  -4.0315817201736065e-01  -3.9583344967648304e-01  -3.8853281543140833e-01  -3.8125671503254610e-01  -3.7400559274594869e-01  -3.6677989132492106e-01  -3.5958005198148985e-01  -3.5240651435772402e-01  -3.4525971649700871e-01  -3.3814009481517709e-01  -3.3104808407158298e-01  -3.2398411733996785e-01  -3.1694862597937978e-01  -3.0994203960490080e-01  -3.0296478605825183e-01  -2.9601729137844246e-01  -2.8909997977221713e-01  -2.8221327358447168e-01  -2.7535759326855358e-01  -2.6853335735659911e-01  -2.6174098242971156e-01  -2.5498088308808375e-01  -2.4825347192121988e-01  -2.4155915947787454e-01  -2.3489835423621216e-01  -2.2827146257381400e-01  -2.2167888873780950e-01  -2.1512103481492656e-01  -2.0859830070154603e-01  -2.0211108407406481e-01  -1.9565978035904774e-01  -1.8924478270373224e-01  -1.8286648194656263e-01  -1.7652526658794584e-01  -1.7022152276121646e-01  -1.6395563420393658e-01  -1.5772798222945444e-01  -1.5153894569882326e-01  -1.4538890099322049e-01  -1.3927822198695425e-01  -1.3320728002079593e-01  -1.2717644387630889e-01  -1.2118607975075535e-01  -1.1523655123303489e-01  -1.0932821928065969e-01  -1.0346144219772553e-01  -9.7636575614620205e-02  -9.1853972468864675e-02  -8.6113982988217638e-02  -8.0416954675367552e-02  -7.4763232295492713e-02  -6.9153157866231094e-02  -6.3587070651082406e-02  -5.8065307156424974e-02  -5.2588201132918254e-02  -4.7156083581935931e-02  -4.1769282768253264e-02  -3.6428124239785434e-02  -3.1132930855727610e-02  -2.5884022825233693e-02  -2.0681717758495363e-02  -1.5526330732998977e-02  -1.0418174378541766e-02  -5.3575589855789172e-03  -3.4479264307577830e-04  4.6198185868278393e-03  9.5359704456394658e-03  1.4403360194114865e-02  1.9221686236652935e-02  2.3990647670342400e-02  2.8709943532531777e-02  3.3379272110974384e-02  3.7998329906139140e-02  4.2566807030399487e-02  4.7084384213178246e-02  5.1550822254718284e-02  5.5965229616778120e-02  6.0329549457743853e-02  6.4639354942288257e-02  -7.8990358054026821e-01  -7.8190614762471555e-01  -7.7390898457390234e-01  -7.6591279059211392e-01  -7.5791800691468958e-01  -7.4992514395953092e-01  -7.4193469383341759e-01  -7.3394715305872449e-01  -7.2596301620349413e-01  -7.1798277711592595e-01  -7.1000692865953297e-01  -7.0203596271136914e-01  -6.9407037019401563e-01  -6.8611064110671416e-01  -6.7815726456179304e-01  -6.7021072881787946e-01  -6.6227152130810618e-01  -6.5434012866257285e-01  -6.4641703672497153e-01  -6.3850273056376516e-01  -6.3059769447837910e-01  -6.2270241200097376e-01  -6.1481736589435121e-01  -6.0694303814643624e-01  -5.9907990996184668e-01  -5.9122846175091737e-01  -5.8338917311651362e-01  -5.7556252283892628e-01  -5.6774898885916614e-01  -5.5994904826075642e-01  -5.5216317725035580e-01  -5.4439185113722710e-01  -5.3663554431182625e-01  -5.2889473022355193e-01  -5.2116988135771980e-01  -5.1346146921199198e-01  -5.0576996427215537e-01  -4.9809583598747331e-01  -4.9043955274556411e-01  -4.8280158184690403e-01  -4.7518238947893637e-01  -4.6758244068997129e-01  -4.6000219936267062e-01  -4.5244212818737989e-01  -4.4490268863515059e-01  -4.3738434093063283e-01  -4.2988754402470364e-01  -4.2241275556694940e-01  -4.1496043187796011e-01  -4.0753102792148588e-01  -4.0012499727645512e-01  -3.9274279210883462e-01  -3.8538486314335685e-01  -3.7805165963512055e-01  -3.7074362934113753e-01  -3.6346121849169444e-01  -3.5620487176159898e-01  -3.4897503224139886e-01  -3.4177214140842166e-01  -3.3459663909775728e-01  -3.2744896347316033e-01  -3.2032955099784721e-01  -3.1323883640518402e-01  -3.0617725266933254e-01  -2.9914523097578261e-01  -2.9214320069186955e-01  -2.8517158933715842e-01  -2.7823082255380643e-01  -2.7132132407684029e-01  -2.6444351570445518e-01  -2.5759781726815262e-01  -2.5078464660301897e-01  -2.4400441951773291e-01  -2.3725754976483412e-01  -2.3054444901086363e-01  -2.2386552680649213e-01  -2.1722119055673267e-01  -2.1061184549117756e-01  -2.0403789463439903e-01  -1.9749973877631169e-01  -1.9099777644274857e-01  -1.8453240386621900e-01  -1.7810401495666919e-01  -1.7171300127276967e-01  -1.6535975199317982e-01  -1.5904465388826797e-01  -1.5276809129217242e-01  -1.4653044607528934e-01  -1.4033209761731294e-01  -1.3417342278055899e-01  -1.2805479588437921e-01  -1.2197658867986243e-01  -1.1593917032575424e-01  -1.0994290736508167e-01  -1.0398816370292804e-01  -9.8075300585662578e-02  -9.2204676581226955e-02  -8.6376647561417205e-02  -8.0591566685758315e-02  -7.4849784387730933e-02  -6.9151648363303370e-02  -6.3497503562336827e-02  -5.7887692183274705e-02  -5.2322553671451937e-02  -4.6802424721922226e-02  -4.1327639287315865e-02  -3.5898528591690564e-02  -3.0515421151297226e-02  -2.5178642803684172e-02  -1.9888516746642094e-02  -1.4645363589160708e-02  -9.4495014160394936e-03  -4.3012458702272986e-03  7.9908974428309903e-04  5.8511943336985086e-03  1.0854758854356730e-02  1.5809476112573075e-02  2.0715040517267289e-02  2.5571147766227733e-02  3.0377494471415214e-02  3.5133777610206862e-02  3.9839694230550893e-02  4.4494939472988049e-02  4.9099209758623821e-02  5.3652194697917363e-02  5.8153582320434716e-02  6.2603107489186835e-02  6.7000630867954131e-02  7.1344221985148323e-02  -7.8990402818548511e-01  -7.8184383723913997e-01  -7.7378393244367538e-01  -7.6572501384668357e-01  -7.5766752513027613e-01  -7.4961197917462863e-01  -7.4155887017130373e-01  -7.3350869700052657e-01  -7.2546195667282998e-01  -7.1741914591562439e-01  -7.0938076062417910e-01  -7.0134729591298872e-01  -6.9331924608598117e-01  -6.8529710463681603e-01  -6.7728136425862517e-01  -6.6927251685584443e-01  -6.6127105355607851e-01  -6.5327746471991199e-01  -6.4529223994784568e-01  -6.3731586808399765e-01  -6.2934883721649182e-01  -6.2139163467475722e-01  -6.1344474702390372e-01  -6.0550866005646198e-01  -5.9758385878178122e-01  -5.8967082741327326e-01  -5.8177004935384180e-01  -5.7388200717964888e-01  -5.6600718262242511e-01  -5.5814605655050431e-01  -5.5029910894876521e-01  -5.4246681889754700e-01  -5.3464966455073937e-01  -5.2684812311305651e-01  -5.1906267081667035e-01  -5.1129378289722982e-01  -5.0354193356934873e-01  -4.9580759600162161e-01  -4.8809124229119277e-01  -4.8039334343799073e-01  -4.7271436931861027e-01  -4.6505478865985989e-01  -4.5741506901204104e-01  -4.4979567672201359e-01  -4.4219707690600207e-01  -4.3461973342219873e-01  -4.2706410884316481e-01  -4.1953066442808973e-01  -4.1201986009484981e-01  -4.0453215439192158e-01  -3.9706800447019336e-01  -3.8962786605458044e-01  -3.8221219341556395e-01  -3.7482143934060047e-01  -3.6745605510541507e-01  -3.6011649044516580e-01  -3.5280319352558653e-01  -3.4551661091388919e-01  -3.3825718754978340e-01  -3.3102536671617189e-01  -3.2382159000997202e-01  -3.1664629731272298e-01  -3.0949992676116705e-01  -3.0238291471778100e-01  -2.9529569574123632e-01  -2.8823870255674905e-01  -2.8121236602644722e-01  -2.7421711511963021e-01  -2.6725337688306006e-01  -2.6032157641119075e-01  -2.5342213681634118e-01  -2.4655547919885509e-01  -2.3972202261733269e-01  -2.3292218405889578e-01  -2.2615637840923294e-01  -2.1942501842302123e-01  -2.1272851469422979e-01  -2.0606727562645419e-01  -1.9944170740348829e-01  -1.9285221395994484e-01  -1.8629919695203428e-01  -1.7978305572844808e-01  -1.7330418730171165e-01  -1.6686298631947780e-01  -1.6045984503626953e-01  -1.5409515328566986e-01  -1.4776929845269998e-01  -1.4148266544676563e-01  -1.3523563667516347e-01  -1.2902859201708422e-01  -1.2286190879835750e-01  -1.1673596176705087e-01  -1.1065112306975526e-01  -1.0460776222902418e-01  -9.8606246121922897e-02  -9.2646938959879827e-02  -8.6730202269882192e-02  -8.0856394877497045e-02  -7.5025872891670092e-02  -6.9238989691823447e-02  -6.3496095917108530e-02  -5.7797539458871575e-02  -5.2143665455965167e-02  -4.6534816293998964e-02  -4.0971331608771804e-02  -3.5453548294495089e-02  -2.9981800517903976e-02  -2.4556419738799823e-02  -1.9177734738607843e-02  -1.3846071657691325e-02  -8.5617540433608405e-03  -3.3251029105912642e-03  1.8635631826136622e-03  7.0039280422365367e-03  1.2095677724622934e-02  1.7138500398463472e-02  2.2132086177877163e-02  2.7076126924438660e-02  3.1970316006651421e-02  3.6814348043773266e-02  4.1607918546812950e-02  4.6350723815841488e-02  5.1042459914692209e-02  5.5682826254656669e-02  6.0271511713201227e-02  6.4808256173422257e-02  6.9292650123844307e-02  7.3724794291536722e-02  7.8103186527425553e-02  -7.8990452631618069e-01  -7.8178107851822309e-01  -7.7365793176828268e-01  -7.6553578956764756e-01  -7.5741509741743041e-01  -7.4929637014364026e-01  -7.4118010424009750e-01  -7.3306680108111533e-01  -7.2495696040546476e-01  -7.1685108186057445e-01  -7.0874966442469967e-01  -7.0065320646702989e-01  -6.9256220567060167e-01  -6.8447715901469852e-01  -6.7639856276138510e-01  -6.6832691244944087e-01  -6.6026270289156530e-01  -6.5220642817239483e-01  -6.4415858164603268e-01  -6.3611965593226427e-01  -6.2809014291102272e-01  -6.2007053371495457e-01  -6.1206131872000824e-01  -6.0406298753415322e-01  -5.9607602898430989e-01  -5.8810093110163419e-01  -5.8013818110530591e-01  -5.7218826538494183e-01  -5.6425166948179994e-01  -5.5632887806888742e-01  -5.4842037493008500e-01  -5.4052664293840424e-01  -5.3264816403342474e-01  -5.2478541919809329e-01  -5.1693888843487212e-01  -5.0910905074131940e-01  -5.0129638408520838e-01  -4.9350136537913664e-01  -4.8572447045485623e-01  -4.7796617403709801e-01  -4.7022694971715656e-01  -4.6250726992617458e-01  -4.5480760590817826e-01  -4.4712842769279698e-01  -4.3947020406786086e-01  -4.3183340255170788e-01  -4.2421848936538331e-01  -4.1662592940460713e-01  -4.0905618621161105e-01  -4.0150972194684320e-01  -3.9398699736051912e-01  -3.8648847176403045e-01  -3.7901460300124878e-01  -3.7156584741975995e-01  -3.6414265984192212e-01  -3.5674549353587531e-01  -3.4937480018642630e-01  -3.4203102986585043e-01  -3.3471463100465959e-01  -3.2742605036223660e-01  -3.2016573299739337e-01  -3.1293412223892630e-01  -3.0573165965601234e-01  -2.9855878502867961e-01  -2.9141593631804807e-01  -2.8430354963673216e-01  -2.7722205921902032e-01  -2.7017189739113767e-01  -2.6315349454150605e-01  -2.5616727909080811e-01  -2.4921367746223125e-01  -2.4229311405171855e-01  -2.3540601119814503e-01  -2.2855278915348556e-01  -2.2173386605320064e-01  -2.1494965788655748e-01  -2.0820057846702583e-01  -2.0148703940280252e-01  -1.9480945006756092e-01  -1.8816821757113333e-01  -1.8156374673054204e-01  -1.7499644004124507e-01  -1.6846669764849598e-01  -1.6197491731903893e-01  -1.5552149441321414e-01  -1.4910682185733690e-01  -1.4273129011650521e-01  -1.3639528716799587e-01  -1.3009919847508725e-01  -1.2384340696150808e-01  -1.1762829298682953e-01  -1.1145423432228377e-01  -1.0532160612775406e-01  -9.9230780929749240e-02  -9.3182128600494601e-02  -8.7176016338312901e-02  -8.1212808649513454e-02  -7.5292867331923113e-02  -6.9416551460401599e-02  -6.3584217374287141e-02  -5.7796218667353662e-02  -5.2052906180586202e-02  -4.6354627998061469e-02  -4.0701729446156049e-02  -3.5094553096988702e-02  -2.9533438776497282e-02  -2.4018723577753510e-02  -1.8550741880279858e-02  -1.3129825376315643e-02  -7.7563031052104350e-03  -2.4305014968309850e-03  2.8472555742142321e-03  8.0766467229202790e-03  1.3257352973898490e-02  1.8389057666668651e-02  2.3471446343954337e-02  2.8504206622607144e-02  3.3487028048484836e-02  3.8419601932856387e-02  4.3301621207118612e-02  4.8132780213780015e-02  5.2912774869274225e-02  5.7641301892271721e-02  6.2318062286529322e-02  6.6942751199380424e-02  7.1515102095943847e-02  7.6034722845106303e-02  8.0501736532026066e-02  8.4914364360099859e-02  -7.8990505757184570e-01  -7.8171785455090270e-01  -7.7353096663260257e-01  -7.6534510105767206e-01  -7.5716070491699505e-01  -7.4897829558740048e-01  -7.4079837216598843e-01  -7.3262143874038765e-01  -7.2444799791908931e-01  -7.1627855236277393e-01  -7.0811360421469738e-01  -6.9995365513765861e-01  -6.9179920621801871e-01  -6.8365075793329255e-01  -6.7550881012042785e-01  -6.6737386195564674e-01  -6.5924641193904321e-01  -6.5112695788214980e-01  -6.4301599689685285e-01  -6.3491402538452490e-01  -6.2682153902471394e-01  -6.1873903276299425e-01  -6.1066700079770986e-01  -6.0260593656554873e-01  -5.9455633272587893e-01  -5.8651868114390260e-01  -