<?xml version="1.0"?>
<VTKFile type="UnstructuredGrid"  version="0.1"  >
<UnstructuredGrid>
<Piece  NumberOfPoints="4225" NumberOfCells="8192">
<Points>
<DataArray  type="Float64"  NumberOfComponents="3"  format="ascii">0 0 0  0.015625 0 0  0.03125 0 0  0.046875 0 0  0.0625 0 0  0.078125 0 0  0.09375 0 0  0.109375 0 0  0.125 0 0  0.140625 0 0  0.15625 0 0  0.171875 0 0  0.1875 0 0  0.203125 0 0  0.21875 0 0  0.234375 0 0  0.25 0 0  0.265625 0 0  0.28125 0 0  0.296875 0 0  0.3125 0 0  0.328125 0 0  0.34375 0 0  0.359375 0 0  0.375 0 0  0.390625 0 0  0.40625 0 0  0.421875 0 0  0.4375 0 0  0.453125 0 0  0.46875 0 0  0.484375 0 0  0.5 0 0  0.515625 0 0  0.53125 0 0  0.546875 0 0  0.5625 0 0  0.578125 0 0  0.59375 0 0  0.609375 0 0  0.625 0 0  0.640625 0 0  0.65625 0 0  0.671875 0 0  0.6875 0 0  0.703125 0 0  0.71875 0 0  0.734375 0 0  0.75 0 0  0.765625 0 0  0.78125 0 0  0.796875 0 0  0.8125 0 0  0.828125 0 0  0.84375 0 0  0.859375 0 0  0.875 0 0  0.890625 0 0  0.90625 0 0  0.921875 0 0  0.9375 0 0  0.953125 0 0  0.96875 0 0  0.984375 0 0  1 0 0  0 0.015625 0  0.015625 0.015625 0  0.03125 0.015625 0  0.046875 0.015625 0  0.0625 0.015625 0  0.078125 0.015625 0  0.09375 0.015625 0  0.109375 0.015625 0  0.125 0.015625 0  0.140625 0.015625 0  0.15625 0.015625 0  0.171875 0.015625 0  0.1875 0.015625 0  0.203125 0.015625 0  0.21875 0.015625 0  0.234375 0.015625 0  0.25 0.015625 0  0.265625 0.015625 0  0.28125 0.015625 0  0.296875 0.015625 0  0.3125 0.015625 0  0.328125 0.015625 0  0.34375 0.015625 0  0.359375 0.015625 0  0.375 0.015625 0  0.390625 0.015625 0  0.40625 0.015625 0  0.421875 0.015625 0  0.4375 0.015625 0  0.453125 0.015625 0  0.46875 0.015625 0  0.484375 0.015625 0  0.5 0.015625 0  0.515625 0.015625 0  0.53125 0.015625 0  0.546875 0.015625 0  0.5625 0.015625 0  0.578125 0.015625 0  0.59375 0.015625 0  0.609375 0.015625 0  0.625 0.015625 0  0.640625 0.015625 0  0.65625 0.015625 0  0.671875 0.015625 0  0.6875 0.015625 0  0.703125 0.015625 0  0.71875 0.015625 0  0.734375 0.015625 0  0.75 0.015625 0  0.765625 0.015625 0  0.78125 0.015625 0  0.796875 0.015625 0  0.8125 0.015625 0  0.828125 0.015625 0  0.84375 0.015625 0  0.859375 0.015625 0  0.875 0.015625 0  0.890625 0.015625 0  0.90625 0.015625 0  0.921875 0.015625 0  0.9375 0.015625 0  0.953125 0.015625 0  0.96875 0.015625 0  0.984375 0.015625 0  1 0.015625 0  0 0.03125 0  0.015625 0.03125 0  0.03125 0.03125 0  0.046875 0.03125 0  0.0625 0.03125 0  0.078125 0.03125 0  0.09375 0.03125 0  0.109375 0.03125 0  0.125 0.03125 0  0.140625 0.03125 0  0.15625 0.03125 0  0.171875 0.03125 0  0.1875 0.03125 0  0.203125 0.03125 0  0.21875 0.03125 0  0.234375 0.03125 0  0.25 0.03125 0  0.265625 0.03125 0  0.28125 0.03125 0  0.296875 0.03125 0  0.3125 0.03125 0  0.328125 0.03125 0  0.34375 0.03125 0  0.359375 0.03125 0  0.375 0.03125 0  0.390625 0.03125 0  0.40625 0.03125 0  0.421875 0.03125 0  0.4375 0.03125 0  0.453125 0.03125 0  0.46875 0.03125 0  0.484375 0.03125 0  0.5 0.03125 0  0.515625 0.03125 0  0.53125 0.03125 0  0.546875 0.03125 0  0.5625 0.03125 0  0.578125 0.03125 0  0.59375 0.03125 0  0.609375 0.03125 0  0.625 0.03125 0  0.640625 0.03125 0  0.65625 0.03125 0  0.671875 0.03125 0  0.6875 0.03125 0  0.703125 0.03125 0  0.71875 0.03125 0  0.734375 0.03125 0  0.75 0.03125 0  0.765625 0.03125 0  0.78125 0.03125 0  0.796875 0.03125 0  0.8125 0.03125 0  0.828125 0.03125 0  0.84375 0.03125 0  0.859375 0.03125 0  0.875 0.03125 0  0.890625 0.03125 0  0.90625 0.03125 0  0.921875 0.03125 0  0.9375 0.03125 0  0.953125 0.03125 0  0.96875 0.03125 0  0.984375 0.03125 0  1 0.03125 0  0 0.046875 0  0.015625 0.046875 0  0.03125 0.046875 0  0.046875 0.046875 0  0.0625 0.046875 0  0.078125 0.046875 0  0.09375 0.046875 0  0.109375 0.046875 0  0.125 0.046875 0  0.140625 0.046875 0  0.15625 0.046875 0  0.171875 0.046875 0  0.1875 0.046875 0  0.203125 0.046875 0  0.21875 0.046875 0  0.234375 0.046875 0  0.25 0.046875 0  0.265625 0.046875 0  0.28125 0.046875 0  0.296875 0.046875 0  0.3125 0.046875 0  0.328125 0.046875 0  0.34375 0.046875 0  0.359375 0.046875 0  0.375 0.046875 0  0.390625 0.046875 0  0.40625 0.046875 0  0.421875 0.046875 0  0.4375 0.046875 0  0.453125 0.046875 0  0.46875 0.046875 0  0.484375 0.046875 0  0.5 0.046875 0  0.515625 0.046875 0  0.53125 0.046875 0  0.546875 0.046875 0  0.5625 0.046875 0  0.578125 0.046875 0  0.59375 0.046875 0  0.609375 0.046875 0  0.625 0.046875 0  0.640625 0.046875 0  0.65625 0.046875 0  0.671875 0.046875 0  0.6875 0.046875 0  0.703125 0.046875 0  0.71875 0.046875 0  0.734375 0.046875 0  0.75 0.046875 0  0.765625 0.046875 0  0.78125 0.046875 0  0.796875 0.046875 0  0.8125 0.046875 0  0.828125 0.046875 0  0.84375 0.046875 0  0.859375 0.046875 0  0.875 0.046875 0  0.890625 0.046875 0  0.90625 0.046875 0  0.921875 0.046875 0  0.9375 0.046875 0  0.953125 0.046875 0  0.96875 0.046875 0  0.984375 0.046875 0  1 0.046875 0  0 0.0625 0  0.015625 0.0625 0  0.03125 0.0625 0  0.046875 0.0625 0  0.0625 0.0625 0  0.078125 0.0625 0  0.09375 0.0625 0  0.109375 0.0625 0  0.125 0.0625 0  0.140625 0.0625 0  0.15625 0.0625 0  0.171875 0.0625 0  0.1875 0.0625 0  0.203125 0.0625 0  0.21875 0.0625 0  0.234375 0.0625 0  0.25 0.0625 0  0.265625 0.0625 0  0.28125 0.0625 0  0.296875 0.0625 0  0.3125 0.0625 0  0.328125 0.0625 0  0.34375 0.0625 0  0.359375 0.0625 0  0.375 0.0625 0  0.390625 0.0625 0  0.40625 0.0625 0  0.421875 0.0625 0  0.4375 0.0625 0  0.453125 0.0625 0  0.46875 0.0625 0  0.484375 0.0625 0  0.5 0.0625 0  0.515625 0.0625 0  0.53125 0.0625 0  0.546875 0.0625 0  0.5625 0.0625 0  0.578125 0.0625 0  0.59375 0.0625 0  0.609375 0.0625 0  0.625 0.0625 0  0.640625 0.0625 0  0.65625 0.0625 0  0.671875 0.0625 0  0.6875 0.0625 0  0.703125 0.0625 0  0.71875 0.0625 0  0.734375 0.0625 0  0.75 0.0625 0  0.765625 0.0625 0  0.78125 0.0625 0  0.796875 0.0625 0  0.8125 0.0625 0  0.828125 0.0625 0  0.84375 0.0625 0  0.859375 0.0625 0  0.875 0.0625 0  0.890625 0.0625 0  0.90625 0.0625 0  0.921875 0.0625 0  0.9375 0.0625 0  0.953125 0.0625 0  0.96875 0.0625 0  0.984375 0.0625 0  1 0.0625 0  0 0.078125 0  0.015625 0.078125 0  0.03125 0.078125 0  0.046875 0.078125 0  0.0625 0.078125 0  0.078125 0.078125 0  0.09375 0.078125 0  0.109375 0.078125 0  0.125 0.078125 0  0.140625 0.078125 0  0.15625 0.078125 0  0.171875 0.078125 0  0.1875 0.078125 0  0.203125 0.078125 0  0.21875 0.078125 0  0.234375 0.078125 0  0.25 0.078125 0  0.265625 0.078125 0  0.28125 0.078125 0  0.296875 0.078125 0  0.3125 0.078125 0  0.328125 0.078125 0  0.34375 0.078125 0  0.359375 0.078125 0  0.375 0.078125 0  0.390625 0.078125 0  0.40625 0.078125 0  0.421875 0.078125 0  0.4375 0.078125 0  0.453125 0.078125 0  0.46875 0.078125 0  0.484375 0.078125 0  0.5 0.078125 0  0.515625 0.078125 0  0.53125 0.078125 0  0.546875 0.078125 0  0.5625 0.078125 0  0.578125 0.078125 0  0.59375 0.078125 0  0.609375 0.078125 0  0.625 0.078125 0  0.640625 0.078125 0  0.65625 0.078125 0  0.671875 0.078125 0  0.6875 0.078125 0  0.703125 0.078125 0  0.71875 0.078125 0  0.734375 0.078125 0  0.75 0.078125 0  0.765625 0.078125 0  0.78125 0.078125 0  0.796875 0.078125 0  0.8125 0.078125 0  0.828125 0.078125 0  0.84375 0.078125 0  0.859375 0.078125 0  0.875 0.078125 0  0.890625 0.078125 0  0.90625 0.078125 0  0.921875 0.078125 0  0.9375 0.078125 0  0.953125 0.078125 0  0.96875 0.078125 0  0.984375 0.078125 0  1 0.078125 0  0 0.09375 0  0.015625 0.09375 0  0.03125 0.09375 0  0.046875 0.09375 0  0.0625 0.09375 0  0.078125 0.09375 0  0.09375 0.09375 0  0.109375 0.09375 0  0.125 0.09375 0  0.140625 0.09375 0  0.15625 0.09375 0  0.171875 0.09375 0  0.1875 0.09375 0  0.203125 0.09375 0  0.21875 0.09375 0  0.234375 0.09375 0  0.25 0.09375 0  0.265625 0.09375 0  0.28125 0.09375 0  0.296875 0.09375 0  0.3125 0.09375 0  0.328125 0.09375 0  0.34375 0.09375 0  0.359375 0.09375 0  0.375 0.09375 0  0.390625 0.09375 0  0.40625 0.09375 0  0.421875 0.09375 0  0.4375 0.09375 0  0.453125 0.09375 0  0.46875 0.09375 0  0.484375 0.09375 0  0.5 0.09375 0  0.515625 0.09375 0  0.53125 0.09375 0  0.546875 0.09375 0  0.5625 0.09375 0  0.578125 0.09375 0  0.59375 0.09375 0  0.609375 0.09375 0  0.625 0.09375 0  0.640625 0.09375 0  0.65625 0.09375 0  0.671875 0.09375 0  0.6875 0.09375 0  0.703125 0.09375 0  0.71875 0.09375 0  0.734375 0.09375 0  0.75 0.09375 0  0.765625 0.09375 0  0.78125 0.09375 0  0.796875 0.09375 0  0.8125 0.09375 0  0.828125 0.09375 0  0.84375 0.09375 0  0.859375 0.09375 0  0.875 0.09375 0  0.890625 0.09375 0  0.90625 0.09375 0  0.921875 0.09375 0  0.9375 0.09375 0  0.953125 0.09375 0  0.96875 0.09375 0  0.984375 0.09375 0  1 0.09375 0  0 0.109375 0  0.015625 0.109375 0  0.03125 0.109375 0  0.046875 0.109375 0  0.0625 0.109375 0  0.078125 0.109375 0  0.09375 0.109375 0  0.109375 0.109375 0  0.125 0.109375 0  0.140625 0.109375 0  0.15625 0.109375 0  0.171875 0.109375 0  0.1875 0.109375 0  0.203125 0.109375 0  0.21875 0.109375 0  0.234375 0.109375 0  0.25 0.109375 0  0.265625 0.109375 0  0.28125 0.109375 0  0.296875 0.109375 0  0.3125 0.109375 0  0.328125 0.109375 0  0.34375 0.109375 0  0.359375 0.109375 0  0.375 0.109375 0  0.390625 0.109375 0  0.40625 0.109375 0  0.421875 0.109375 0  0.4375 0.109375 0  0.453125 0.109375 0  0.46875 0.109375 0  0.484375 0.109375 0  0.5 0.109375 0  0.515625 0.109375 0  0.53125 0.109375 0  0.546875 0.109375 0  0.5625 0.109375 0  0.578125 0.109375 0  0.59375 0.109375 0  0.609375 0.109375 0  0.625 0.109375 0  0.640625 0.109375 0  0.65625 0.109375 0  0.671875 0.109375 0  0.6875 0.109375 0  0.703125 0.109375 0  0.71875 0.109375 0  0.734375 0.109375 0  0.75 0.109375 0  0.765625 0.109375 0  0.78125 0.109375 0  0.796875 0.109375 0  0.8125 0.109375 0  0.828125 0.109375 0  0.84375 0.109375 0  0.859375 0.109375 0  0.875 0.109375 0  0.890625 0.109375 0  0.90625 0.109375 0  0.921875 0.109375 0  0.9375 0.109375 0  0.953125 0.109375 0  0.96875 0.109375 0  0.984375 0.109375 0  1 0.109375 0  0 0.125 0  0.015625 0.125 0  0.03125 0.125 0  0.046875 0.125 0  0.0625 0.125 0  0.078125 0.125 0  0.09375 0.125 0  0.109375 0.125 0  0.125 0.12
[...]
<PointData  Scalars="f_1122"> 
<DataArray  type="Float64"  Name="f_1122"  format="ascii">-7.9344851390675419e-01  -7.7777920089639441e-01  -7.6165103927288236e-01  -7.4528912977794359e-01  -7.2889592857258467e-01  -7.1259436352907013e-01  -6.9646661864196435e-01  -6.8056713785143597e-01  -6.6493190998288920e-01  -6.4958439011146574e-01  -6.3453906467742804e-01  -6.1980376875075827e-01  -6.0538120644646121e-01  -5.9126994939075850e-01  -5.7746509440285720e-01  -5.6395869881063376e-01  -5.5074006769018702e-01  -5.3779594355640814e-01  -5.2511063272460046e-01  -5.1266609471296398e-01  -5.0044201126296617e-01  -4.8841585022400302e-01  -4.7656293281905437e-01  -4.6485651487012891e-01  -4.5326788618454916e-01  -4.4176649671366075e-01  -4.3032011121876934e-01  -4.1889500056892937e-01  -4.0745616955961284e-01  -3.9596762946410635e-01  -3.8439271361253180e-01  -3.7269444465661650e-01  -3.6083594990876522e-01  -3.4878093383420072e-01  -3.3649420185343848e-01  -3.2394224480776890e-01  -3.1109387515633902e-01  -2.9792092414417359e-01  -2.8439898708724831e-01  -2.7050822528665242e-01  -2.5623420632659633e-01  -2.4156878980188745e-01  -2.2651103329060662e-01  -2.1106812287309440e-01  -1.9525629300620517e-01  -1.7910173502481364e-01  -1.6264144721833462e-01  -1.4592402029851037e-01  -1.2901030197201724e-01  -1.1197390326163936e-01  -9.4901480920761339e-02  -7.7892694239911187e-02  -6.1059861448335535e-02  -4.4527046913297015e-02  -2.8428568082357171e-02  -1.2906536500091444e-02  1.8927727497265949e-03  1.5823638032783104e-02  2.8748579865622459e-02  4.0549596036380940e-02  5.1145929066690569e-02  6.0528638257189120e-02  6.8810750096844897e-02  7.6417200118523487e-02  8.4017301539240252e-02  -7.9349700575804416e-01  -7.7751406943452039e-01  -7.6121197534939533e-01  -7.4475416384339610e-01  -7.2826560013179531e-01  -7.1184658451610616e-01  -6.9557211912908823e-01  -6.7949519530725677e-01  -6.6365304239225509e-01  -6.4807118354113502e-01  -6.3276636541093279e-01  -6.1774860682755417e-01  -6.0302260893742243e-01  -5.8858872885385338e-01  -5.7444365409226084e-01  -5.6058086977793220e-01  -5.4699098219145181e-01  -5.3366194513878895e-01  -5.2057922172785442e-01  -5.0772590568147269e-01  -4.9508281966874534e-01  -4.8262860467682867e-01  -4.7033981052523366e-01  -4.5819099649167327e-01  -4.4615484836561059e-01  -4.3420231844548951e-01  -4.2230279270370463e-01  -4.1042429040851491e-01  -3.9853369907711844e-01  -3.8659704940871098e-01  -3.7457983198118949e-01  -3.6244735992899590e-01  -3.5016517815895742e-01  -3.3769952285188420e-01  -3.2501783024381359e-01  -3.1208929773065952e-01  -2.9888549406191833e-01  -2.8538102053355718e-01  -2.7155421683068104e-01  -2.5738791164547559e-01  -2.4287020740072185e-01  -2.2799529668185947e-01  -2.1276429390699070e-01  -1.9718607590690862e-01  -1.8127810611800665e-01  -1.6506723039964344e-01  -1.4859040820290215e-01  -1.3189536226760001e-01  -1.1504109412248953e-01  -9.8098230608701042e-02  -8.1149128996988340e-02  -6.4287676191365994e-02  -4.7618714547092107e-02  -3.1256905116926810e-02  -1.5324985590791991e-02  4.8906334543901623e-05  1.4735020441550832e-02  2.8607311103773812e-02  4.1551482074692628e-02  5.3476221719989191e-02  6.4330942781384959e-02  7.4134217350586229e-02  8.3018187734530957e-02  9.1308118393210624e-02  9.9620437025389030e-02  -7.9401354793089851e-01  -7.7757391026335032e-01  -7.6095480198416166e-01  -7.4426148611310605e-01  -7.2757125531814992e-01  -7.1095932274747753e-01  -6.9448475947878130e-01  -6.7819313306531726e-01  -6.6211854057854147e-01  -6.4628554886907708e-01  -6.3071110636124317e-01  -6.1540599742201518e-01  -6.0037594137410810e-01  -5.8562240886886663e-01  -5.7114321826968606e-01  -5.5693296767020684e-01  -5.4298334916530333e-01  -5.2928337918921731e-01  -5.1581957174183213e-01  -5.0257607356323142e-01  -4.8953477845835192e-01  -4.7667543141254676e-01  -4.6397573412051241e-01  -4.5141145792553683e-01  -4.3895657304042324e-01  -4.2658339719720306e-01  -4.1426277124274380e-01  -4.0196426295069987e-01  -3.8965640601024498e-01  -3.7730697392216550e-01  -3.6488329552246856e-01  -3.5235261036666454e-01  -3.3968247054689771e-01  -3.2684118539021201e-01  -3.1379831528555213e-01  -3.0052520884782297e-01  -2.8699558902419620e-01  -2.7318617936767708e-01  -2.5907737495636507e-01  -2.4465394548028740e-01  -2.2990577328619022e-01  -2.1482860883593480e-01  -1.9942484281368955e-01  -1.8370426971238185e-01  -1.6768483674005807e-01  -1.5139334580902730e-01  -1.3486609755055534e-01  -1.1814943675214584e-01  -1.0130016731734504e-01  -8.4385786493097692e-02  -6.7484476631961554e-02  -5.0684812404411701e-02  -3.4085046311371554e-02  -1.7791912982174869e-02  -1.9187927804450507e-03  1.3416947499595870e-02  2.8097637258607359e-02  4.2010523381501734e-02  5.5054919424619909e-02  6.7151804427412282e-02  7.8257396879241103e-02  8.8380777174248082e-02  9.7600106551043786e-02  1.0608261289721121e-01  1.1390879659859388e-01  -7.9477700483768654e-01  -7.7779873053364490e-01  -7.6077755279327253e-01  -7.4376395168173293e-01  -7.2680045506126945e-01  -7.0993727633852810e-01  -6.9321741134995030e-01  -6.7667729036570101e-01  -6.6034563814185265e-01  -6.4424423966309963e-01  -6.2838880605692271e-01  -6.1278979438872394e-01  -5.9745314028093155e-01  -5.8238084614777019e-01  -5.6757144146578931e-01  -5.5302033684375207e-01  -5.3872009607498317e-01  -5.2466064443872718e-01  -5.1082943328402131e-01  -4.9721157404929439e-01  -4.8378995635190147e-01  -4.7054535744082138e-01  -4.5745655475880209e-01  -4.4450044498650776e-01  -4.3165217977630821e-01  -4.1888531858173561e-01  -4.0617200841884049e-01  -3.9348318853161768e-01  -3.8078883009338904e-01  -3.6805820656251287e-01  -3.5526020553899818e-01  -3.4236367519821975e-01  -3.2933781706756227e-01  -3.1615261521767257e-01  -3.0277931461956520e-01  -2.8919093509698079e-01  -2.7536283458499300e-01  -2.6127330367447943e-01  -2.4690420599656315e-01  -2.3224164063846864e-01  -2.1727664098390287e-01  -2.0200587780920731e-01  -1.8643237992315864e-01  -1.7056623143644867e-01  -1.5442526133613832e-01  -1.3803567664042715e-01  -1.2143265163383754e-01  -1.0466080120327836e-01  -8.7774534883740207e-02  -7.0838211016649888e-02  -5.3926074161437139e-02  -3.7121895233746878e-02  -2.0518217999776718e-02  -4.2152018963960208e-03  1.1681148150848857e-02  2.7061429769400840e-02  4.1816185041359970e-02  5.5840554685272929e-02  6.9039893678920453e-02  8.1337276703167177e-02  9.2681844414299996e-02  1.0305671654991466e-01  1.1248083517534069e-01  1.2099381137244358e-01  1.2858503204817717e-01  -7.9558757402166247e-01  -7.7806647054851652e-01  -7.6060622331203209e-01  -7.4322239827315606e-01  -7.2593570434779497e-01  -7.0877675002737739e-01  -6.9177488049507563e-01  -6.7495708974028545e-01  -6.5834599624349011e-01  -6.4195969395233465e-01  -6.2581175654922028e-01  -6.0991156524419132e-01  -5.9426467451001308e-01  -5.7887315484556900e-01  -5.6373589550330028e-01  -5.4884885866533750e-01  -5.3420528658716648e-01  -5.1979587033564201e-01  -5.0560889052872771e-01  -4.9163033877550877e-01  -4.7784402841939944e-01  -4.6423170216028709e-01  -4.5077314348026842e-01  -4.3744629742034569e-01  -4.2422740621699084e-01  -4.1109116389115741e-01  -3.9801089439270010e-01  -3.8495875617935837e-01  -3.7190597722025620e-01  -3.5882312221141488e-01  -3.4568039553166141e-01  -3.3244798057031621e-01  -3.1909641845640424e-01  -3.0559702543922018e-01  -2.9192235131432831e-01  -2.7804667640652259e-01  -2.6394654849580501e-01  -2.4960135474346012e-01  -2.3499392808067743e-01  -2.2011117936283364e-01  -2.0494475182132410e-01  -1.8949168549847206e-01  -1.7375508725851363e-01  -1.5774479252159024e-01  -1.4147801139216520e-01  -1.2497993181178213e-01  -1.0828425476438897e-01  -9.1433614706094346e-02  -7.4479868862831422e-02  -5.7484210361598904e-02  -4.0517090609122570e-02  -2.3657860930871973e-02  -6.9941094777503715e-03  9.3794077345814506e-03  2.5362365896806842e-02  4.0851078672020195e-02  5.5741467717403174e-02  6.9932769376504278e-02  8.3331919844976787e-02  9.5858785709920319e-02  1.0745082080332813e-01  1.1806650384485440e-01  1.2768207837797096e-01  1.3628587486071653e-01  1.4384964543902923e-01  -7.9632455034102811e-01  -7.7827949906988980e-01  -7.6036853785117575e-01  -7.4258957807719739e-01  -7.2494952623976694e-01  -7.0746466686472509e-01  -6.9015349377106006e-01  -6.7303478305094178e-01  -6.5612540260924845e-01  -6.3943955590444634e-01  -6.2298833321291003e-01  -6.0677965621581365e-01  -5.9081833203593259e-01  -5.7510618613763409e-01  -5.5964221573893003e-01  -5.4442273629207705e-01  -5.2944151491489233e-01  -5.1468989090638839e-01  -5.0015688337761333e-01  -4.8582929129943508e-01  -4.7169178975035297e-01  -4.5772702905656892e-01  -4.4391573962749131e-01  -4.3023684927157468e-01  -4.1666761465571156e-01  -4.0318377362934843e-01  -3.8975971865328018e-01  -3.7636869811879547e-01  -3.6298304433750817e-01  -3.4957443520929488e-01  -3.3611418672736804e-01  -3.2257358362315758e-01  -3.0892424341244240e-01  -2.9513852140934427e-01  -2.8118994961707555e-01  -2.6705371706785774e-01  -2.5270718139921078e-01  -2.3813041872694907e-01  -2.2330679771945805e-01  -2.0822358458717627e-01  -1.9287256165964806e-01  -1.7725066723639626e-01  -1.6136063500248765e-01  -1.4521163571029216e-01  -1.2881988342650397e-01  -1.1220919620819148e-01  -9.5411467581140830e-02  -7.8467054356722077e-02  -6.1425053036343165e-02  -4.4343447326477888e-02  -2.7289065233951477e-02  -1.0337272799646254e-02  6.4286150196795006e-03  2.2918339846160422e-02  3.9036117461482160e-02  5.4682534760814520e-02  6.9756968656865315e-02  8.4160452766386284e-02  9.7799036165799949e-02  1.1058752045956355e-01  1.2245218578943079e-01  1.3333319041735092e-01  1.4318246351486963e-01  1.5196641195606952e-01  1.5965170490414904e-01  -7.9690775063209784e-01  -7.7836531717783064e-01  -7.6000816211576083e-01  -7.4182549028379619e-01  -7.2381572925744386e-01  -7.0598569944205103e-01  -6.8834596343259857e-01  -6.7090873115255789e-01  -6.5368591203006865e-01  -6.3668813043230532e-01  -6.1992402952190506e-01  -6.0339996125651307e-01  -5.8711982898078041e-01  -5.7108505237049201e-01  -5.5529458627687500e-01  -5.3974497025689239e-01  -5.2443039205826913e-01  -5.0934275600437662e-01  -4.9447175356439921e-01  -4.7980493667208357e-01  -4.6532779563760407e-01  -4.5102384398739659e-01  -4.3687471363388841e-01  -4.2286026338936100e-01  -4.0895870434065351e-01  -3.9514674485419166e-01  -3.8139975847266205e-01  -3.6769197709091239e-01  -3.5399671225707108e-01  -3.4028660648701781e-01  -3.2653391688085653e-01  -3.1271083230944985e-01  -2.9878982568248569e-01  -2.8474404170398149e-01  -2.7054772046513653e-01  -2.5617665606734885e-01  -2.4160868906684740e-01  -2.2682423063176849e-01  -2.1180681576799243e-01  -1.9654368253527021e-01  -1.8102637249819331e-01  -1.6525134542465469e-01  -1.4922059524188747e-01  -1.3294225041376251e-01  -1.1643113914510694e-01  -9.9709308765712823e-02  -8.2806494375245787e-02  -6.5760529732579176e-02  -4.8617663634059179e-02  -3.1432721824528727e-02  -1.4269067123328545e-02  2.8016788567026768e-03  1.9700149783311353e-02  3.6340089635398247e-02  5.2629476685819847e-02  6.8472095480501038e-02  8.3769434998011538e-02  9.8423082889339514e-02  1.1233733365509865e-01  1.2542191473062370e-01  1.3759404853649759e-01  1.4878120293481811e-01  1.5892064725838739e-01  1.6796824553207168e-01  1.7588824761184640e-01  -7.9728480200506535e-01  -7.7827343872921251e-01  -7.5948233664559073e-01  -7.4089675589847470e-01  -7.2251046166837440e-01  -7.0432437158328565e-01  -6.8634349004809181e-01  -6.6857512105799000e-01  -6.5102723706735333e-01  -6.3370745960467012e-01  -6.1662226472849913e-01  -5.9977654112855738e-01  -5.8317330141075363e-01  -5.6681352235082727e-01  -5.5069606122958970e-01  -5.3481762431915314e-01  -5.1917276708105664e-01  -5.0375391341718512e-01  -4.8855138932744868e-01  -4.7355346829582246e-01  -4.5874642762894347e-01  -4.4411461669289753e-01  -4.2964053877404851e-01  -4.1530494863736056e-01  -4.0108696812067279e-01  -3.8696422213417447e-01  -3.7291299754304275e-01  -3.5890842712403170e-01  -3.4492470093979444e-01  -3.3093530687183303e-01  -3.1691330236632798e-01  -3.0283161841492312e-01  -2.8866339735315272e-01  -2.7438236445295727e-01  -2.5996323424482082e-01  -2.4538215023576360e-01  -2.3061715830072904e-01  -2.1564871091191495e-01  -2.0046020144470189e-01  -1.8503852268312526e-01  -1.6937464497389243e-01  -1.5346420170389719e-01  -1.3730807307942650e-01  -1.2091295537241775e-01  -1.0429191417237149e-01  -8.7464915383851594e-02  -7.0459322201164021e-02  -5.3310317686633420e-02  -3.6061203401936977e-02  -1.8763546569229302e-02  -1.4771732771050657e-03  1.5729995531255973e-02  3.2782321108286487e-02  4.9597098454023818e-02  6.6085476141647947e-02  8.2153768798586602e-02  9.7704997733539245e-02  1.1264080162011617e-01  1.2686345848756375e-01  1.4027808514579587e-01  1.5279454407055881e-01  1.6433088813639030e-01  1.7481362563911373e-01  1.8419044206185475e-01  1.9241565158986362e-01  -7.9742199725259333e-01  -7.7796928489572270e-01  -7.5875989885315498e-01  -7.3977775209269137e-01  -7.2101437658468459e-01  -7.0246722195265843e-01  -6.8413766000699816e-01  -6.6602958317185390e-01  -6.4814804537947079e-01  -6.3049833746723838e-01  -6.1308517897709791e-01  -5.9591224287068911e-01  -5.7898178394422750e-01  -5.6229439791263314e-01  -5.4584886879471295e-01  -5.2964207509087124e-01  -5.1366893547454495e-01  -4.9792238565088542e-01  -4.8239337833925244e-01  -4.6707090095550541e-01  -4.5194200996851031e-01  -4.3699188102006925e-01  -4.2220387591944508e-01  -4.0755962691588810e-01  -3.9303914071008261e-01  -3.7862092304750261e-01  -3.6428212689017592e-01  -3.4999872490816131e-01  -3.3574570946515747e-01  -3.2149732043163359e-01  -3.0722730391804332e-01  -2.9290920160768952e-01  -2.7851667347625142e-01  -2.6402385272170470e-01  -2.4940573519794995e-01  -2.3463860111846468e-01  -2.1970047046153196e-01  -2.0457158803882614e-01  -1.8923493748875275e-01  -1.7367677668504955e-01  -1.5788719073762225e-01  -1.4186065315181118e-01  -1.2559659322559691e-01  -1.0909996348160167e-01  -9.2381803991388622e-02  -7.5459782084230653e-02  -5.8358677907721652e-02  -4.1110780377230378e-02  -2.3756184818038102e-02  -6.3430037206246908e-03  1.1072530255411099e-02  2.8426113787840539e-02  4.5645661277169174e-02  6.2651804237887632e-02  7.9358643431290510e-02  9.5674736440427455e-02  1.1150429267696271e-01  1.2674869397599733e-01  1.4130807975224785e-01  1.5508339073046645e-01  1.6797813303719589e-01  1.7990196294318084e-01  1.9077108663626263e-01  2.0052283271053395e-01  2.0909374443635609e-01  -7.9729849592606605e-01  -7.7743022821218943e-01  -7.5781939846307811e-01  -7.3844998552717112e-01  -7.1931283476616859e-01  -7.0040360429521620e-01  -6.8172152663929442e-01  -6.6326829780539676e-01  -6.4504697944335199e-01  -6.2706120331176329e-01  -6.0931440902182832e-01  -5.9180937268359290e-01  -5.7454779645605125e-01  -5.5753003167916049e-01  -5.4075487775128650e-01  -5.2421944059606851e-01  -5.0791903969680430e-01  -4.9184715019814096e-01  -4.7599537211908505e-01  -4.6035342315026107e-01  -4.4490915162362032e-01  -4.2964856873879942e-01  -4.1455589923780600e-01  -3.9961365179741914e-01  -3.8480270926840410e-01  -3.7010244106156920e-01  -3.5549083809876914e-01  -3.4094467316443611e-01  -3.2643968693193415e-01  -3.1195080270791076e-01  -2.9745236973198974e-01  -2.8291843805497363e-01  -2.6832306415783558e-01  -2.5364065009664660e-01  -2.3884631435506964e-01  -2.2391629652880773e-01  -2.0882839236538553e-01  -1.9356241981110633e-01  -1.7810071022368312e-01  -1.6242862410971881e-01  -1.4653508469189891e-01  -1.3041312978541608e-01  -1.1406047470565417e-01  -9.7480081851098799e-02  -8.0680716259158736e-02  -6.3677468697748374e-02  -4.6492223737468315e-02  -2.9154077408263930e-02  -1.1699702032134558e-02  5.8263535764904112e-03  2.3371501135557297e-02  4.0875109301948813e-02  5.8268687510936161e-02  7.5476184220755971e-02  9.2414510733531907e-02  1.0899423207220255e-01  1.2512050962558852e-01  1.4069431632980603e-01  1.5561365101116698e-01  1.6977533189878596e-01  1.8307648868453408e-01  1.9541803555869974e-01  2.0670439568738508e-01  2.1685907987279518e-01  2.2579411753337619e-01  -7.9690280190900520e-01  -7.7664271770643190e-01  -7.5664725168812463e-01  -7.3690125541925777e-01  -7.1739587500328561e-01  -6.9812614153577268e-01  -6.7909025757018338e-01  -6.6028869539538526e-01  -6.4172332156351253e-01  -6.2339674188848271e-01  -6.0531158872163005e-01  -5.8747008549045621e-01  -5.6987363712105221e-01  -5.5252253301889098e-01  -5.3541571732522364e-01  -5.1855062028416476e-01  -5.0192303553227813e-01  -4.8552703419589349e-01  -4.6935490986584494e-01  -4.5339714916370166e-01  -4.3764242518974950e-01  -4.2207761190286153e-01  -4.0668781906011464e-01  -3.9145644733533214e-01  -3.7636526467937026e-01  -3.6139450435089193e-01  -3.4652298641226897e-01  -3.3172826341714012e-01  -3.1698679240977867e-01  -3.0227413393167835e-01  -2.8756518019805322e-01  -2.7283441284166843e-01  -2.5805619216416353e-01  -2.4320507767813115e-01  -2.2825618126801039e-01  -2.1318555166236353e-01  -1.9797059048886778e-01  -1.8259049729038113e-01  -1.6702674302117693e-01  -1.5126356883923453e-01  -1.3528850941459591e-01  -1.1909293542424759e-01  -1.0267260920877419e-01  -8.6028239685169261e-02  -6.9166024316017705e-02  -5.2098167778116718e-02  -3.4843379168166162e-02  -1.7427343638792843e-02  1.1685433887830769e-04  1.7748401171536525e-02  3.5418548776156460e-02  5.3070506427206558e-02  7.0639439262042414e-02  8.8052574045152321e-02  1.0522953474740382e-01  1.2208280804376120e-01  1.3851842137933984e-01  1.5443678035298902e-01  1.6973351090551442e-01  1.8430100025659552e-01  1.9802937106870966e-01  2.1080966878141649e-01  2.2253236196670678e-01  2.3310338015606935e-01  2.4240468909487523e-01  -7.9623047820844661e-01  -7.7560026886076194e-01  -7.5523632650072070e-01  -7.3512485159610996e-01  -7.1525794182398528e-01  -6.9563082200875925e-01  -6.7624148399413464e-01  -6.5708994807889098e-01  -6.3817755685144650e-01  -6.1950644957898682e-01  -6.0107889273478676e-01  -5.8289691095814256e-01  -5.6496188250130963e-01  -5.4727424100581512e-01  -5.2983323636711432e-01  -5.1263674839291085e-01  -4.9568114419608644e-01  -4.7896117239862068e-01  -4.6246988837917069e-01  -4.4619860626770169e-01  -4.3013687479190921e-01  -4.1427247523877941e-01  -3.9859144058110996e-01  -3.8307809563171524e-01  -3.6771511840650728e-01  -3.5248362357117768e-01  -3.3736326877382794e-01  -3.2233238526792052e-01  -3.0736813388171358e-01  -2.9244668793828277e-01  -2.7754344414763787e-01  -2.6263326299428025e-01  -2.4769073930301522e-01  -2.3269050410715497e-01  -2.1760755783476693e-01  -2.0241763528341927e-01  -1.8709760163108724e-01  -1.7162587941102370e-01  -1.5598290504183243e-01  -1.4015161386626263e-01  -1.2411794995133585e-01  -1.0787139561667214e-01  -9.1405512241131248e-02  -7.4718485169630089e-02  -5.7813667782068652e-02  -4.0700123915955462e-02  -2.3393161658258783e-02  -5.9148383796803266e-03  1.1705594711208571e-02  2.9431320148058708e-02  4.7217644528342310e-02  6.5011735041337282e-02  8.2752468381501854e-02  1.0037039916940060e-01  1.1778790360258762e-01  1.3491936505964047e-01  1.5167152453262644e-01  1.6794395186016248e-01  1.8362955273249915e-01  1.9861572942746641e-01  2.1278466479364999e-01  2.2601598960770120e-01  2.3818381945143541e-01  2.4917312123093294e-01  2.5883142365347078e-01  -7.9528264912840729e-01  -7.7430207749229130e-01  -7.5358486031800620e-01  -7.3311884716296660e-01  -7.1289753853994053e-01  -6.9291694129151526e-01  -6.7317545380988797e-01  -6.5367325438023904e-01  -6.3441171685074327e-01  -6.1539299452624796e-01  -5.9661939645544226e-01  -5.7809308406859028e-01  -5.5981567888370165e-01  -5.4178797839640680e-01  -5.2400971514597483e-01  -5.0647936231405044e-01  -4.8919397951586063e-01  -4.7214909316467857e-01  -4.5533860671654747e-01  -4.3875473731762504e-01  -4.2238797640153081e-01  -4.0622707249252077e-01  -3.9025903534760342