<?xml version="1.0"?>
<VTKFile type="UnstructuredGrid"  version="0.1"  >
<UnstructuredGrid>
<Piece  NumberOfPoints="81" NumberOfCells="128">
<Points>
<DataArray  type="Float64"  NumberOfComponents="3"  format="ascii">0 0 0  0.125 0 0  0.25 0 0  0.375 0 0  0.5 0 0  0.625 0 0  0.75 0 0  0.875 0 0  1 0 0  0 0.125 0  0.125 0.125 0  0.25 0.125 0  0.375 0.125 0  0.5 0.125 0  0.625 0.125 0  0.75 0.125 0  0.875 0.125 0  1 0.125 0  0 0.25 0  0.125 0.25 0  0.25 0.25 0  0.375 0.25 0  0.5 0.25 0  0.625 0.25 0  0.75 0.25 0  0.875 0.25 0  1 0.25 0  0 0.375 0  0.125 0.375 0  0.25 0.375 0  0.375 0.375 0  0.5 0.375 0  0.625 0.375 0  0.75 0.375 0  0.875 0.375 0  1 0.375 0  0 0.5 0  0.125 0.5 0  0.25 0.5 0  0.375 0.5 0  0.5 0.5 0  0.625 0.5 0  0.75 0.5 0  0.875 0.5 0  1 0.5 0  0 0.625 0  0.125 0.625 0  0.25 0.625 0  0.375 0.625 0  0.5 0.625 0  0.625 0.625 0  0.75 0.625 0  0.875 0.625 0  1 0.625 0  0 0.75 0  0.125 0.75 0  0.25 0.75 0  0.375 0.75 0  0.5 0.75 0  0.625 0.75 0  0.75 0.75 0  0.875 0.75 0  1 0.75 0  0 0.875 0  0.125 0.875 0  0.25 0.875 0  0.375 0.875 0  0.5 0.875 0  0.625 0.875 0  0.75 0.875 0  0.875 0.875 0  1 0.875 0  0 1 0  0.125 1 0  0.25 1 0  0.375 1 0  0.5 1 0  0.625 1 0  0.75 1 0  0.875 1 0  1 1 0  </DataArray>
</Points>
<Cells>
<DataArray  type="UInt32"  Name="connectivity"  format="ascii">0 1 10  0 9 10  1 2 11  1 10 11  2 3 12  2 11 12  3 4 13  3 12 13  4 5 14  4 13 14  5 6 15  5 14 15  6 7 16  6 15 16  7 8 17  7 16 17  9 10 19  9 18 19  10 11 20  10 19 20  11 12 21  11 20 21  12 13 22  12 21 22  13 14 23  13 22 23  14 15 24  14 23 24  15 16 25  15 24 25  16 17 26  16 25 26  18 19 28  18 27 28  19 20 29  19 28 29  20 21 30  20 29 30  21 22 31  21 30 31  22 23 32  22 31 32  23 24 33  23 32 33  24 25 34  24 33 34  25 26 35  25 34 35  27 28 37  27 36 37  28 29 38  28 37 38  29 30 39  29 38 39  30 31 40  30 39 40  31 32 41  31 40 41  32 33 42  32 41 42  33 34 43  33 42 43  34 35 44  34 43 44  36 37 46  36 45 46  37 38 47  37 46 47  38 39 48  38 47 48  39 40 49  39 48 49  40 41 50  40 49 50  41 42 51  41 50 51  42 43 52  42 51 52  43 44 53  43 52 53  45 46 55  45 54 55  46 47 56  46 55 56  47 48 57  47 56 57  48 49 58  48 57 58  49 50 59  49 58 59  50 51 60  50 59 60  51 52 61  51 60 61  52 53 62  52 61 62  54 55 64  54 63 64  55 56 65  55 64 65  56 57 66  56 65 66  57 58 67  57 66 67  58 59 68  58 67 68  59 60 69  59 68 69  60 61 70  60 69 70  61 62 71  61 70 71  63 64 73  63 72 73  64 65 74  64 73 74  65 66 75  65 74 75  66 67 76  66 75 76  67 68 77  67 76 77  68 69 78  68 77 78  69 70 79  69 78 79  70 71 80  70 79 80  </DataArray>
<DataArray  type="UInt32"  Name="offsets"  format="ascii">3 6 9 12 15 18 21 24 27 30 33 36 39 42 45 48 51 54 57 60 63 66 69 72 75 78 81 84 87 90 93 96 99 102 105 108 111 114 117 120 123 126 129 132 135 138 141 144 147 150 153 156 159 162 165 168 171 174 177 180 183 186 189 192 195 198 201 204 207 210 213 216 219 222 225 228 231 234 237 240 243 246 249 252 255 258 261 264 267 270 273 276 279 282 285 288 291 294 297 300 303 306 309 312 315 318 321 324 327 330 333 336 339 342 345 348 351 354 357 360 363 366 369 372 375 378 381 384 </DataArray>
<DataArray  type="UInt8"  Name="types"  format="ascii">5 5 5 5 5 5 5 5 5 5 5 5 5 5 5 5 5 5 5 5 5 5 5 5 5 5 5 5 5 5 5 5 5 5 5 5 5 5 5 5 5 5 5 5 5 5 5 5 5 5 5 5 5 5 5 5 5 5 5 5 5 5 5 5 5 5 5 5 5 5 5 5 5 5 5 5 5 5 5 5 5 5 5 5 5 5 5 5 5 5 5 5 5 5 5 5 5 5 5 5 5 5 5 5 5 5 5 5 5 5 5 5 5 5 5 5 5 5 5 5 5 5 5 5 5 5 5 5 </DataArray>
</Cells>
<PointData  Scalars="f_1124"> 
<DataArray  type="Float64"  Name="f_1124"  format="ascii">-7.4856821281448891e+00  -7.3578769501818115e+00  -7.1967216030922838e+00  -6.9507457345602699e+00  -6.5264674521990980e+00  -5.8198849738532861e+00  -4.7296957287050327e+00  -3.2545016224925050e+00  -1.6447628229835276e+00  -7.4809350906845662e+00  -1.7109812621803362e+00  -1.1985944873985088e+00  -8.1696885752182946e-01  -7.9392417805462023e-01  -1.2278862231722851e+00  -1.4068077103505259e+00  -2.9344152429460504e+00  -1.3211333463970414e+00  -7.4426168669253219e+00  -6.7999567680758211e-01  -2.2791263605656531e+00  -1.9464795596964033e+00  -1.9813389725903867e+00  -2.3521322512791585e+00  -2.1950951765739379e+00  -4.2311318556330386e+00  -3.1286095886436160e-01  -7.3178245769462134e+00  5.2735989957961205e-01  -1.3797746516989828e+00  -7.7113886976577528e-01  -9.0399498530063016e-01  -1.4129757622662040e+00  -1.3091335052320445e+00  -4.6161561562219768e+00  1.3104463505508319e+00  -7.0107660178024389e+00  1.4341644530267115e+00  -7.3813382724468535e-01  -3.3594739870202089e-02  -9.3581238287948149e-02  -5.5063046514552272e-01  -3.5238000684906357e-01  -4.7005763979833119e+00  3.6482277224974333e+00  -6.4149074190097952e+00  2.0024517807074251e+00  -1.2412555471074579e-01  8.5336652210027419e-01  9.9966568557489022e-01  7.7691791223716689e-01  1.3707061614960740e+00  -3.3622613189132373e+00  6.9901354088489303e+00  -5.4254229140209080e+00  1.8048789292652507e+00  2.3602691297665926e-01  1.6281235064437560e+00  2.3041567980810398e+00  3.0577830575810796e+00  4.4165834499743459e+00  1.5468056516925069e-01  1.1829883976991969e+01  -4.0420128232156252e+00  1.7792853111849134e+00  8.2621814346693823e-01  2.2614808360010921e+00  2.9435385413027064e+00  3.8977108996123908e+00  4.8821488381334932e+00  4.6028799293966394e+00  1.9028811761298229e+01  -2.4315631334159957e+00  -1.9633246101405624e+00  -7.8547036823996419e-01  9.5709427211472886e-01  3.3762152244952452e+00  6.7759653756195437e+00  1.1667550542347236e+01  1.8932328281622713e+01  2.9808231800607672e+01  </DataArray> 
</PointData> 
</Piece>
</UnstructuredGrid>
</VTKFile>