<?xml version="1.0"?>
<VTKFile type="UnstructuredGrid"  version="0.1"  >
<UnstructuredGrid>
<Piece  NumberOfPoints="81" NumberOfCells="128">
<Points>
<DataArray  type="Float64"  NumberOfComponents="3"  format="ascii">0 0 0  0.125 0 0  0.25 0 0  0.375 0 0  0.5 0 0  0.625 0 0  0.75 0 0  0.875 0 0  1 0 0  0 0.125 0  0.125 0.125 0  0.25 0.125 0  0.375 0.125 0  0.5 0.125 0  0.625 0.125 0  0.75 0.125 0  0.875 0.125 0  1 0.125 0  0 0.25 0  0.125 0.25 0  0.25 0.25 0  0.375 0.25 0  0.5 0.25 0  0.625 0.25 0  0.75 0.25 0  0.875 0.25 0  1 0.25 0  0 0.375 0  0.125 0.375 0  0.25 0.375 0  0.375 0.375 0  0.5 0.375 0  0.625 0.375 0  0.75 0.375 0  0.875 0.375 0  1 0.375 0  0 0.5 0  0.125 0.5 0  0.25 0.5 0  0.375 0.5 0  0.5 0.5 0  0.625 0.5 0  0.75 0.5 0  0.875 0.5 0  1 0.5 0  0 0.625 0  0.125 0.625 0  0.25 0.625 0  0.375 0.625 0  0.5 0.625 0  0.625 0.625 0  0.75 0.625 0  0.875 0.625 0  1 0.625 0  0 0.75 0  0.125 0.75 0  0.25 0.75 0  0.375 0.75 0  0.5 0.75 0  0.625 0.75 0  0.75 0.75 0  0.875 0.75 0  1 0.75 0  0 0.875 0  0.125 0.875 0  0.25 0.875 0  0.375 0.875 0  0.5 0.875 0  0.625 0.875 0  0.75 0.875 0  0.875 0.875 0  1 0.875 0  0 1 0  0.125 1 0  0.25 1 0  0.375 1 0  0.5 1 0  0.625 1 0  0.75 1 0  0.875 1 0  1 1 0  </DataArray>
</Points>
<Cells>
<DataArray  type="UInt32"  Name="connectivity"  format="ascii">0 1 10  0 9 10  1 2 11  1 10 11  2 3 12  2 11 12  3 4 13  3 12 13  4 5 14  4 13 14  5 6 15  5 14 15  6 7 16  6 15 16  7 8 17  7 16 17  9 10 19  9 18 19  10 11 20  10 19 20  11 12 21  11 20 21  12 13 22  12 21 22  13 14 23  13 22 23  14 15 24  14 23 24  15 16 25  15 24 25  16 17 26  16 25 26  18 19 28  18 27 28  19 20 29  19 28 29  20 21 30  20 29 30  21 22 31  21 30 31  22 23 32  22 31 32  23 24 33  23 32 33  24 25 34  24 33 34  25 26 35  25 34 35  27 28 37  27 36 37  28 29 38  28 37 38  29 30 39  29 38 39  30 31 40  30 39 40  31 32 41  31 40 41  32 33 42  32 41 42  33 34 43  33 42 43  34 35 44  34 43 44  36 37 46  36 45 46  37 38 47  37 46 47  38 39 48  38 47 48  39 40 49  39 48 49  40 41 50  40 49 50  41 42 51  41 50 51  42 43 52  42 51 52  43 44 53  43 52 53  45 46 55  45 54 55  46 47 56  46 55 56  47 48 57  47 56 57  48 49 58  48 57 58  49 50 59  49 58 59  50 51 60  50 59 60  51 52 61  51 60 61  52 53 62  52 61 62  54 55 64  54 63 64  55 56 65  55 64 65  56 57 66  56 65 66  57 58 67  57 66 67  58 59 68  58 67 68  59 60 69  59 68 69  60 61 70  60 69 70  61 62 71  61 70 71  63 64 73  63 72 73  64 65 74  64 73 74  65 66 75  65 74 75  66 67 76  66 75 76  67 68 77  67 76 77  68 69 78  68 77 78  69 70 79  69 78 79  70 71 80  70 79 80  </DataArray>
<DataArray  type="UInt32"  Name="offsets"  format="ascii">3 6 9 12 15 18 21 24 27 30 33 36 39 42 45 48 51 54 57 60 63 66 69 72 75 78 81 84 87 90 93 96 99 102 105 108 111 114 117 120 123 126 129 132 135 138 141 144 147 150 153 156 159 162 165 168 171 174 177 180 183 186 189 192 195 198 201 204 207 210 213 216 219 222 225 228 231 234 237 240 243 246 249 252 255 258 261 264 267 270 273 276 279 282 285 288 291 294 297 300 303 306 309 312 315 318 321 324 327 330 333 336 339 342 345 348 351 354 357 360 363 366 369 372 375 378 381 384 </DataArray>
<DataArray  type="UInt8"  Name="types"  format="ascii">5 5 5 5 5 5 5 5 5 5 5 5 5 5 5 5 5 5 5 5 5 5 5 5 5 5 5 5 5 5 5 5 5 5 5 5 5 5 5 5 5 5 5 5 5 5 5 5 5 5 5 5 5 5 5 5 5 5 5 5 5 5 5 5 5 5 5 5 5 5 5 5 5 5 5 5 5 5 5 5 5 5 5 5 5 5 5 5 5 5 5 5 5 5 5 5 5 5 5 5 5 5 5 5 5 5 5 5 5 5 5 5 5 5 5 5 5 5 5 5 5 5 5 5 5 5 5 5 </DataArray>
</Cells>
<<<<<<< HEAD
<PointData  Scalars="f_1122"> 
<DataArray  type="Float64"  Name="f_1122"  format="ascii">-9.0987221030460544e-03  -6.9669918159860145e-03  -3.7122584863935404e-03  -1.0043498397236602e-04  3.3930469013139430e-03  6.5242603853781422e-03  9.1601774867869010e-03  1.1238756391609005e-02  1.2742200504140454e-02  1.3680991934893715e-02  1.4083960791646331e-02  1.3991946681664501e-02  1.3453709918831679e-02  1.2523156210573448e-02  1.1257390513039554e-02  9.7153438160664449e-03  7.9568007394201987e-03  6.0416965507739317e-03  4.0295989622334471e-03  1.9793267612742338e-03  -5.1343046778320319e-05  -2.0058975609343688e-03  -3.8292725577154596e-03  -5.4680025042930036e-03  -6.8703602968150724e-03  -7.9864838301393140e-03  -8.7685083665071453e-03  -9.1706989951443121e-03  -9.1495984658701360e-03  -8.6641834070738041e-03  -7.6760417257517389e-03  -6.1495638840329070e-03  -4.0521584829184909e-03  -1.3544843393140458e-03  1.9692920020200266e-03  5.9412211490284172e-03  1.0579271341112494e-02  1.5897013190116625e-02  2.1903282866037731e-02  2.8601833028252276e-02  3.5990967989214327e-02  4.4063174167013462e-02  5.2804743029313282e-02  6.2195399763471458e-02  7.2207937664237956e-02  8.2807875314397275e-02  9.3953137452663885e-02  1.0559378200288273e-01  1.1767177704861533e-01  1.3012086316808438e-01  1.4286650887583233e-01  1.5582601137446431e-01  1.6890874646167434e-01  1.8201667755448450e-01  1.9504517649710265e-01  2.0788428704900189e-01  2.2042058154686475e-01  2.3253985248453860e-01  2.4413127478869481e-01  2.5509509774956030e-01  2.6535184789884703e-01  2.7486556039699250e-01  2.8367021703139583e-01  2.9194527186178965e-01  3.0027839367351072e-01  -2.3230856016899427e-02  -2.1163179356351348e-02  -1.8390215563872638e-02  -1.5370558923421408e-02  -1.2398092498535386e-02  -9.6841420016519977e-03  -7.3581679227092489e-03  -5.4888478758305737e-03  -4.1043016219130890e-03  -3.2048071898409325e-03  -2.7715707355166841e-03  -2.7726196478405707e-03  -3.1668808368221302e-03  -3.9070836501500028e-03  -4.9418404078722467e-03  -6.2171399325307930e-03  -7.6774424750858184e-03  -9.2664931433259282e-03  -1.0927933274404535e-02  -1.2605765627089240e-02  -1.4244715448389768e-02  -1.5790516961997826e-02  -1.7190147538807300e-02  -1.8392026364255389e-02  -1.9346190377383200e-02  -2.0004457529046372e-02  -2.0320585008105553e-02  -2.0250428935209071e-02  -1.9752109813542737e-02  -1.8786187993441346e-02  -1.7315851660707073e-02  -1.5307120257441333e-02  -1.2729064033916417e-02  -9.5540414843050328e-03  -5.7579544802639293e-03  -1.3205219074284645e-03  3.7744299711923923e-03  9.5386607425205425e-03  1.5979195272721534e-02  2.3097990912657650e-02  3.0891596970956246e-02  3.9350809657451545e-02  4.8460328262718753e-02  5.8198418057453759e-02  6.8536588577946547e-02  7.9439295927785661e-02  9.0863680401416250e-02  1.0275935210546640e-01  1.1506824212499202e-01  1.2772453944488585e-01  1.4065474135160907e-01  1.5377784767508687e-01  1.6700575190275704e-01  1.8024388370979996e-01  1.9339218490796786e-01  2.0634653037677800e-01  2.1900080053544582e-01  2.3124991827083055e-01  2.4299442293868004e-01  2.5414687714800754e-01  2.6464197758307462e-01  2.7445291823878515e-01  2.8361105818376986e-01  2.9226653907154576e-01  3.0063131022101208e-01  -3.8683317874023328e-02  -3.6230961092378312e-02  -3.3499546256112046e-02  -3.0706136562764975e-02  -2.8010666945012398e-02  -2.5558894975878689e-02  -2.3444592770161178e-02  -2.1724137630960684e-02  -2.0423434601538150e-02  -1.9545050936312848e-02  -1.9074449586134336e-02  -1.8984588438268425e-02  -1.9239402940768736e-02  -1.9796412224114525e-02  -2.0608654813520012e-02  -2.1626139389331313e-02  -2.2796952327403842e-02  -2.4068100474872824e-02  -2.5386161291660582e-02  -2.6697790775829545e-02  -2.7950126935824417e-02  -2.9091116207253888e-02  -3.0069784564225911e-02  -3.0836469765197806e-02  -3.1343027585459628e-02  -3.1543021581375209e-02  -3.1391905018890755e-02  -3.0847200394758141e-02  -2.9868682353189777e-02  -2.8418566695926746e-02  -2.6461709976380178e-02  -2.3965820371774561e-02  -2.0901682984203675e-02  -1.7243398800370825e-02  -1.2968639722915933e-02  -8.0589174384580811e-03  -2.4998673177979236e-03  3.7184560248180376e-03  1.0601271355695573e-02  1.8148756446577451e-02  2.6355728246141095e-02  3.5211323772511370e-02  4.4698685428002947e-02  5.4794659070163586e-02  6.5469511549360884e-02  7.6686677799934447e-02  8.8402547456128758e-02  1.0056630504969589e-01  1.1311984152628086e-01  1.2599775907497393e-01  1.3912749603542721e-01  1.5242960434669198e-01  1.6581822324665388e-01  1.7920179497158897e-01  1.9248410435974342e-01  2.0556576206584423e-01  2.1834629283614773e-01  2.3072700986727937e-01  2.4261492713656455e-01  2.5392785172356547e-01  2.6460173069896653e-01  2.7459996291200284e-01  2.8392090164770467e-01  2.9260641058783454e-01  3.0065036198331319e-01  -5.4653374057636241e-02  -5.1682456640971909e-02  -4.8787754677967789e-02  -4.6018538647990305e-02  -4.3439563451296716e-02  -4.1127526401649718e-02  -3.9138128195308687e-02  -3.7508412178434127e-02  -3.6254283319324877e-02  -3.5374721244587383e-02  -3.4855047257647188e-02  -3.4669909843427084e-02  -3.4785882335055952e-02  -3.5163530466349326e-02  -3.5759039258153470e-02  -3.6525516660066627e-02  -3.7414013003109738e-02  -3.8374325971602043e-02  -3.9355641216102778e-02  -4.0307047709189005e-02  -4.1177956263525585e-02  -4.1918445487155488e-02  -4.2479554617701566e-02  -4.2813537333789876e-02  -4.2874088806727419e-02  -4.2616554912620154e-02  -4.1998131754858066e-02  -4.0978060881767593e-02  -3.9517825327432525e-02  -3.7581349984815791e-02  -3.5135209540321517e-02  -3.2148845924231929e-02  -2.8594796711636929e-02  -2.4448935689391972e-02  -1.9690725558396883e-02  -1.4303482899485888e-02  -8.2746537893533048e-03  -1.5960997172266087e-03  5.7356095264271744e-03  1.3718897574183340e-02  2.2346883218377543e-02  3.1607084723740207e-02  4.1481134721874223e-02  5.1944509702885243e-02  6.2966284258718211e-02  7.4508915289683411e-02  8.6528071595211489e-02  9.8972520446253057e-02  1.1178409443087479e-01  1.2489775298978635e-01  1.3824176414772318e-01  1.5173803008842771e-01  1.6530258985301852e-01  1.7884635927000139e-01  1.9227615637379539e-01  2.0549613918435131e-01  2.1840962297677050e-01  2.3092150365539513e-01  2.4294113474750881e-01  2.5438602278554745e-01  2.6518608898166196e-01  2.7528708821880388e-01  2.8464930314612324e-01  2.9324340422179818e-01  3.0099654391648167e-01  -7.0640455534923804e-02  -6.7204035179417851e-02  -6.4078763177205497e-02  -6.1228101106763445e-02  -5.8659157385533713e-02  -5.6396975626477476e-02  -5.4464342958858027e-02  -5.2875587559356931e-02  -5.1633716563598699e-02  -5.0730937254267673e-02  -5.0149380577805248e-02  -4.9862951950973435e-02  -4.9838939075436774e-02  -5.0039444827864911e-02  -5.0422658849250658e-02  -5.0943923199870490e-02  -5.1556602134121811e-02  -5.2212803807641019e-02  -5.2863974494188094e-02  -5.3461390204003291e-02  -5.3956566234837446e-02  -5.4301605273100885e-02  -5.4449496751899785e-02  -5.4354381387445729e-02  -5.3971789629740398e-02  -5.3258863605408470e-02  -5.2174568056242855e-02  -5.0679896770296391e-02  -4.8738077897544474e-02  -4.6314782494251812e-02  -4.3378338394725748e-02  -3.9899951828743375e-02  -3.5853937877326304e-02  -3.1217960584719685e-02  -2.5973283172618801e-02  -2.0105027406957722e-02  -1.3602441939694600e-02  -6.4591769599611016e-03  1.3264357906526338e-03  9.7511024837853219e-03  1.8806287934540110e-02  2.8477944418924282e-02  3.8746251080169512e-02  4.9585372828505857e-02  6.0963243005208965e-02  7.2841383844303845e-02  8.5174774620136354e-02  9.7911786126865699e-02  1.1099418936281015e-01  1.2435725465000892e-01  1.3792995468475724e-01  1.5163530326401367e-01  1.6539086471253753e-01  1.7910947615793441e-01  1.9270022244502363e-01  2.0606966129710183e-01  2.1912333889107585e-01  2.3176760920899533e-01  2.4391171009749837e-01  2.5547012855350859e-01  2.6636436594333679e-01  2.7652321594752616e-01  2.8587975413813416e-01  2.9436782590278598e-01  3.0189079653078510e-01  -8.6375851473023277e-02  -8.2561370701160083e-02  -7.9205457300368196e-02  -7.6233859586020566e-02  -7.3619560394208014e-02  -7.1352755197339843e-02  -6.9428913856389038e-02  -6.7843130431457496e-02  -6.6585695054009561e-02  -6.5640495337090585e-02  -6.4985019670274577e-02  -6.4590949996490496e-02  -6.4424903879760839e-02  -6.4449375230394720e-02  -6.4623634188425191e-02  -6.4904511627639203e-02  -6.5247104086142635e-02  -6.5605383920847457e-02  -6.5932720565413980e-02  -6.6182325849853715e-02  -6.6307639271882421e-02  -6.6262661834980849e-02  -6.6002251104145690e-02  -6.5482385427234821e-02  -6.4660406966146541e-02  -6.3495248485039721e-02  -6.1947651269136240e-02  -5.9980377206146136e-02  -5.7558420506381346e-02  -5.4649220508206815e-02  -5.1222879560324765e-02  -4.7252386174855866e-02  -4.2713846100477106e-02  -3.7586720437047895e-02  -3.1854072279266600e-02  -2.5502819918086096e-02  -1.8523996831926272e-02  -1.0913015317194109e-02  -2.6699327300725240e-03  6.2002840383046575e-03  1.5687498005128940e-02  2.5776151023205317e-02  3.6445025949563024e-02  4.7667030522658548e-02  5.9409010687613971e-02  7.1631605756637309e-02  8.4289153511990747e-02  9.7329653785278150e-02  1.1069479654274962e-01  1.2432007111368205e-01  1.3813498257833559e-01  1.5206340142520738e-01  1.6602407276051781e-01  1.7993128280163354e-01  1.9369569863388938e-01  2.0722535432870440e-01  2.2042686471945497e-01  2.3320673924062255e-01  2.4547285962843682e-01  2.5713573065154272e-01  2.6810887546014373e-01  2.7830860658621726e-01  2.8765168742842295e-01  2.9605412068761527e-01  3.0341308121473043e-01  -1.0170173295680550e-01  -9.7601235364242797e-02  -9.4049117414788816e-02  -9.0955236658584168e-02  -8.8273926957967527e-02  -8.5972532061312709e-02  -8.4027691077683139e-02  -8.2419166063603541e-02  -8.1125575265720049e-02  -8.0122938168854171e-02  -7.9383667000059596e-02  -7.8876392762476918e-02  -7.8566245506471941e-02  -7.8415355155875929e-02  -7.8383372999407883e-02  -7.8428030046276728e-02  -7.8505674771227593e-02  -7.8571756997370609e-02  -7.8581262917875358e-02  -7.8489105564149772e-02  -7.8250471340107416e-02  -7.7821130402254454e-02  -7.7157716885744784e-02  -7.6217986548381231e-02  -7.4961055861815049e-02  -7.3347629366874598e-02  -7.1340218119261875e-02  -6.8903354805888661e-02  -6.6003806842633544e-02  -6.2610791892612663e-02  -5.8696195866011748e-02  -5.4234796837033507e-02  -4.9204493697384256e-02  -4.3586542037206334e-02  -3.7365794926878949e-02  -3.0530950123461277e-02  -2.3074800142286779e-02  -1.4994485750122390e-02  -6.2917482089226229e-03  3.0268201456471666e-03  1.2949533066779283e-02  2.3459377447502726e-02  3.4533798979695461e-02  4.6144511267470344e-02  5.8257338722003803e-02  7.0832096564474437e-02  8.3822515301190462e-02  9.7176214320727108e-02  1.1083474289120156e-01  1.2473370913580696e-01  1.3880301636709239e-01  1.5296721068643973e-01  1.6714593654056345e-01  1.8125449994177781e-01  1.9520455209605328e-01  2.0890490917934382e-01  2.2226251468076622e-01  2.3518337137672865e-01  2.4757357611819100e-01  2.5933981724299926e-01  2.7038955812926346e-01  2.8063106310308727e-01  2.8997206713207824e-01  2.9832075549307913e-01  3.0557440248800827e-01  -1.1653009910327448e-01  -1.1222889186845796e-01  -1.0852722347875331e-01  -1.0532948977258559e-01  -1.0258014019140525e-01  -1.0023314185288389e-01  -9.8252345858368381e-02  -9.6605660784958788e-02  -9.5262530411179588e-02  -9.4192096440315329e-02  -9.3361835621459152e-02  -9.2737171927243386e-02  -9.2281406760171367e-02  -9.1955834416178814e-02  -9.1720024565993472e-02  -9.1532193390999370e-02  -9.1349571302118834e-02  -9.1128769402882823e-02  -9.0826132734001183e-02  -9.0398067931109036e-02  -8.9801345661224205e-02  -8.8993380513212247e-02  -8.7932491572859414e-02  -8.6578145872754572e-02  -8.4891189774119621e-02  -8.2834070555884973e-02  -8.0371052943034191e-02  -7.7468431852554365e-02  -7.4094745472998907e-02  -7.0220988912676405e-02  -6.5820831832829399e-02  -6.0870839183787419e-02  -5.5350697691062968e-02  -4.9243446104400769e-02  -4.2535711084523788e-02  -3.5217945631261773e-02  -2.7284671104048398e-02  -1.8734718657141804e-02  -9.5714701927793536e-03  1.9690675773766724e-04  1.0557231743343574e-02  2.1491099223800235e-02  3.2974684519107476e-02  4.4978575661313046e-02  5.7467632889358210e-02  7.0400882849126503e-02  8.3731453271966863e-02  9.7406565099722023e-02  1.1136759658682661e-01  1.2555023000650015e-01  1.3988467527470586e-01  1.5429596901224321e-01  1.6870435429425748e-01  1.8302576356707559e-01  1.9717241075774042e-01  2.1105348184438635e-01  2.2457584834444735e-01  2.3764474022925833e-01  2.5016445190384173e-01  2.6203858005037484e-01  2.7317045796214767e-01  2.8346347707084130e-01  2.9282060203117100e-01  3.0114665192685708e-01  3.0833955332579022e-01  -1.3081596877823418e-01  -1.2638892365855400e-01  -1.2258651017186060e-01  -1.1931230112430423e-01  -1.1650630155153995e-01  -1.1411501239742460e-01  -1.1209356191149043e-01  -1.1040171271902353e-01  -1.0900190466495439e-01  -1.0785755307148358e-01  -1.0693184748265371e-01  -1.0618726049715720e-01  -1.0558518012501648e-01  -1.0508586005480346e-01  -1.0464855113622716e-01  -1.0423168224641931e-01  -1.0379310074145563e-01  -1.0329034444825523e-01  -1.0268091340712247e-01  -1.0192253555926954e-01  -1.0097342526502794e-01  -9.9792530382320485e-02  -9.8339768430545912e-02  -9.6576252871457810e-02  -9.4464512154852229e-02  -9.1968702951743739e-02  -8.9054820317018599e-02  -8.5690906201711409e-02  -8.1847258540753087e-02  -7.7496641971080249e-02  -7.2614501520643512e-02  -6.7179179878173942e-02  -6.1172138503084540e-02  -5.4578182749451233e-02  -4.7385690072687538e-02  -3.9586841072399494e-02  -3.1177851089539833e-02  -2.2159201543067254e-02  -1.2535867088331078e-02  -2.3175369117771428e-03  8.4811754901084266e-03  1.9840536072182523e-02  3.1735513621255172e-02  4.4135624109460612e-02  5.7004803616846032e-02  7.0301315263446421e-02  8.3977704623033680e-02  9.7980811359371880e-02  1.1225184268641898e-01  1.2672650164517532e-01  1.4133517278634947e-01  1.5600317865092442e-01  1.7065112392892304e-01  1.8519533020756954e-01  1.9954833577038980e-01  2.1361942554935445e-01  2.2731515841625119e-01  2.4053991172792347e-01  2.5319642496306027e-01  2.6518605937658046e-01  2.7640947430057672e-01  2.8676703604696474e-01  2.9615901490640306e-01  3.0448840803474919e-01  3.1165320842378375e-01  -1.4454153469557338e-01  -1.4005246693477066e-01  -1.3619536486284775e-01  -1.3287509793010985e-01  -1.3003027821035149e-01  -1.2760319482658186e-01  -1.2554362284305529e-01  -1.2380583132319932e-01  -1.2234703908047416e-01  -1.2112624626206613e-01  -1.2010319223141218e-01  -1.1923775734393825e-01  -1.1848956107660034e-01  -1.1781784508556180e-01  -1.1718143583405081e-01  -1.1653882275924075e-01  -1.1584831234724689e-01  -1.1506820846873710e-01  -1.1415701406431498e-01  -1.1307364522626283e-01  -1.1177764663109278e-01  -1.1022940516079381e-01  -1.0839036053332372e-01  -1.0622321265025202e-01  -1.0369212585643893e-01  -1.0076293123945428e-01  -9.7403328023127581e-02  -9.3583085277256797e-02  -8.9274245048373571e-02  -8.4451327704489890e-02  -7.9091540333169022e-02  -7.3174988298513419e-02  -6.6684890375388980e-02  -5.9607796733007846e-02  -5.1933809668505450e-02  -4.3656805363326480e-02  -3.4774655868649453e-02  -2.5289448405249583e-02  -1.5207700414833193e-02  -4.5405663762292181e-03  6.6959655036977960e-03  1.8480891207285376e-02  3.0788025644849192e-02  4.3585860723331725e-02  5.6837452132443532e-02  7.0500344948142515e-02  8.4526542364484994e-02  9.8862520359864550e-02  1.1344928456564098e-01  1.2822247549715818e-01  1.4311253604914323e-01  1.5804495374672459e-01  1.7294057111113673e-01  1.8771594491312851e-01  2.0228373510534017e-01  2.1655311816896330e-01  2.3043024927935821e-01  2.4381872708536492e-01  2.5662005514266184e-01  2.6873399334751502e-01  2.8005929962323295e-01  2.9049426057346928e-01  2.9993730355390680e-01  3.0828990465585493e-01  3.1544862780855709e-01  -1.5770612031920714e-01  -1.5320842166616264e-01  -1.4933799751412377e-01  -1.4600177269076695e-01  -1.4313837057857046e-01  -1.4068797659449236e-01  -1.3859727875266767e-01  -1.3681686567804305e-01  -1.3530029874527535e-01  -1.3400336610794447e-01  -1.3288308534555579e-01  -1.3189722687217784e-01  -1.3100395305695553e-01  -1.3016159593269513e-01  -1.2932856820084246e-01  -1.2846338313675496e-01  -1.2752472372237630e-01  -1.2647156024775105e-01  -1.2526329961256341e-01  -1.2385995142362770e-01  -1.2222230455407866e-01  -1.2031211002132634e-01  -1.1809226684717720e-01  -1.1552700950889865e-01  -1.1258209647084159e-01  -1.0922499981741761e-01  -1.0542509631871831e-01  -1.0115386044443608e-01  -9.6385059809838566e-02  -9.1094953505706816e-02  -8.5262493551797366e-02  -7.8869529577238237e-02  -7.1901016490342737e-02  -6.4345224702407652e-02  -5.6193951996854598e-02  -4.7442735917980740e-02  -3.8091064973942747e-02  -2.8142586841784036e-02  -1.7605311166427363e-02  -6.4918046910338112e-03  5.1806243246086603e-03  1.7389755464946054e-02  3.0108304104779847e-02  4.3303792984802601e-02  5.6938453681977717e-02  7.0969161136647876e-02  8.5347403029663940e-02  1.0001928403846484e-01  1.1492557197610688e-01  1.3000179719999541e-01  1.4517841245054222e-01  1.6038100468010311e-01  1.7553054437594010e-01  1.9054366955924443e-01  2.0533300813378566e-01  2.1980754531778104e-01  2.3387304110044485e-01  2.4743239385007201e-01  2.6038608776233962e-01  2.7263262738372607e-01  2.8406924855198712e-01  2.9459253895318005e-01  3.0409913446549730e-01  3.1248852226234947e-01  3.1965431334579053e-01  -1.7031987633494181e-01  -1.6585769930300051e-01  -1.6200996017967959e-01  -1.5868562827675234e-01  -1.5582399729166127e-01  -1.5336445742530588e-01  -1.5125194628554992e-01  -1.4943474140030408e-01  -1.4786398034649093e-01  -1.4649314911966502e-01  -1.4527724082564816e-01  -1.4417245206076676e-01  -1.4313578944772673e-01  -1.4212485890119894e-01  -1.4109776208266320e-01  -1.4001305685361529e-01  -1.3882978263932108e-01  -1.3750753397876933e-01  -1.3600656539903441e-01  -1.3428791914690139e-01  -1.3231356907870093e-01  -1.3004657573351172e-01  -1.2745124888954248e-01  -1.2449331586741523e-01  -1.2114009395842250e-01  -1.1736066674848365e-01  -1.1312606367696333e-01  -1.0840944320322275e-01  -1.0318627918684735e-01  -9.7434550957289146e-02  -9.1134936554411697e-02  -8.4271009384048454e-02  -7.6829437386771490e-02  -6.8800184511657134e-02  -6.0176713055720012e-02  -5.0956186105911440e-02  -4.1139668087977067e-02  -3.0732322114467393e-02  -1.9743601605946882e-02  -8.1874342094230071e-03  3.9176053764746954e-03  1.6548136912523347e-02  2.9675834978790248e-02  4.3267311841334054e-02  5.7284025926572356e-02  7.1682217391467309e-02  8.6412873363396883e-02  1.0142172872171785e-01  1.1664931098412602e-01  1.3203103234692296e-01  1.4749732297458354e-01  1.6297379557067695e-01  1.7838144669523850e-01  1.9363690011589754e-01  2.0865269372706677e-01  2.2333760034614650e-01  2.3759696787975806e-01  2.5133301443227474e-01  2.6444533091564759e-01  2.7683128908063193e-01  2.8838666453888395e-01  2.9900634150471994e-01  3.0858485639838573e-01  3.1701905207776049e-01  3.2419814162977634e-01  -1.8239978193178771e-01  -1.7800920356497582e-01  -1.7421468975366758e-01  -1.7092694593875832e-01  -1.6808620869970012e-01  -1.6563173822707242e-01  -1.6350758289647646e-01  -1.6166068924514151e-01  -1.6004062217283740e-01  -1.5859930341443970e-01  -1.5729034115958981e-01  -1.5606879663678327e-01  -1.5489084214348844e-01  -1.5371358731204540e-01  -1.5249495206974981e-01  -1.5119360883215058e-01  -1.4976898181584949e-01  -1.4818128759801516e-01  -1.4639160743186405e-01  -1.4436198537224096e-01  -1.4205554517997274e-01  -1.3943662123749831e-01  -1.3647090028121697e-01  -1.3312557156550134e-01  -1.2936948381298927e-01  -1.2517330788673806e-01  -1.2050970452022446e-01  -1.1535349664485935e-01  -1.0968184601958576e-01  -1.0347443382871199e-01  -9.6713644955679315e-02  -8.9384755389585666e-02  -8.1476122265379577e-02  -7.2979375580059777e-02  -6.3889610780348813e-02  -5.4205580749791739e-02  -4.3929886036325617e-02  -3.3069161228275835e-02  -2.1634255834343287e-02  -9.6404067205071234e-03  2.8926002353173641e-03  1.5940283010922117e-02  2.9473333109791409e-02  4.3457505191953925e-02  5.7853528008342779e-02  7.2617040405452485e-02  8.7698556443451384e-02  1.0304346615929029e-01  1.1859207263095330e-01  1.3427966281077411e-01  1.5003660592064530e-01  1.6578848693271866e-01  1.8145627943371470e-01  1.9695655742463061e-01  2.1220173296381176e-01  2.2710031676718814e-01  2.4155719588788174e-01  2.5547391997205882e-01  2.6874921921839823e-01  2.8127928456608631e-01  2.9295833295183371e-01  3.0367931402547166e-01  3.1333413544205824e-01  3.2181621245435021e-01  3.2900918947928037e-01  -1.9396688675455939e-01  -1.8967696667560660e-01  -1.8596100817302072e-01  -1.8273104436673779e-01  -1.7992826578683038e-01  -1.7749213600394029e-01  -1.7536636028086569e-01  -1.7349716852994976e-01  -1.7183317329311396e-01  -1.7032533182474327e-01  -1.6892634849873042e-01  -1.6759053975024749e-01  -1.6627355875814318e-01  -1.6493223658326014e-01  -1.6352446251834737e-01  -1.6200912354929906e-01  -1.6034608659209557e-01  -1.5849621720484017e-01  -1.5642143036088360e-01  -1.5408476573922966e-01  -1.5145048265572944e-01  -1.4848417088773011e-01  -1.4515287413607267e-01  -1.4142522370634367e-01  -1.3727158069806919e-01  -1.3266418541954020e-01  -1.2757731304475683e-01  -1.2198743482112778e-01  -1.1587338420274131e-01  -1.0921652740615211e-01  -1.0200093776481085e-01  -9.4213573331761322e-02  -8.5844456894597118e-02  -7.6886857663638217e-02  -6.7337473432950365e-02  -5.7196612195565578e-02  -4.6468371490140249e-02  -3.5160814100366512e-02  -2.3286137692929844e-02  -1.0860836637434292e-02  2.0941469989350847e-03  1.5553284917326125e-02  2.9486339485390166e-02  4.3858257344559635e-02  5.8629083573691364e-02  7.3753899023843786e-02  8.9182785821128055e-02  1.0486082085056349e-01  1.2072809709889111e-01  1.3671976925328469e-01  1.5276613060381730e-01  1.6879272326331710e-01  1.8472048272908029e-01  2.0046590198020200e-01  2.1594122141662234e-01  2.3105463869788959e-01  2.4571055192800853e-01  2.5980983196177743e-01  2.7325027051111039e-01  2.8592670433702594e-01  2.9773158032935543e-01  3.0855555976206794e-01  3.1828738516062183e-01  3.2681633013643330e-01  3.3401947662377118e-01  -2.0504440774828067e-01  -2.0087814034452098e-01  -1.9726125750342735e-01  -1.9410669315790249e-01  -1.9135648325861096e-01  -1.8895042730391440e-01  -1.8683219240669421e-01  -1.8494769232819117e-01  -1.8324503639772691e-01  -1.8167464684179821e-01  -1.8018870484951452e-01  -1.7874112224434066e-01  -1.7728729960300102e-01  -1.7578399613835802e-01  -1.7418922853348204e-01  -1.7246221021493621e-01  -1.7056332538368810e-01  -1.6845413675890572e-01  -1.6609742050116946e-01  -1.6345722458206655e-01  -1.6049894673376039e-01  -1.5718942865318061e-01  -1.5349706364307034e-01  -1.4939191556892609e-01  -1.4484584737424375e-01  -1.3983265773359396e-01  -1.3432822479817669e-01  -1.2831065609019093e-01  -1.2176044381150812e-01  -1.1466062479541293e-01  -1.0699694446982554e-01  -9.8758023990008478e-02  -8.9935529863574379e-02  -8.0524344961623404e-02  -7.0522740088709499e-02  -5.9932544583545445e-02  -4.8759314912269126e-02  -3.7012499189724248e-02  -2.4705596390834896e-02  -1.1856307717270399e-02  1.5133210397699972e-03  1.5376768896153491e-02  2.9702921866696673e-02  4.4455971467552334e-02  5.9595331134628469e-02  7.5075574475628196e-02  9.0846395033121988e-02  1.0685258874432325e-01  1.2303405713385286e-01  1.3932583683161440e-01  1.5565815600510116e-01  1.7195651949044824e-01  1.8814181048835590e-01  2.0413041459657724e-01  2.1983436672552784e-01  2.3516151947217037e-01  2.5001574685918193e-01  2.6429716551980009e-01  2.7790246540574470e-01  2.9072494173781216e-01  3.0265504452750891e-01  3.1358074550942128e-01  3.2338705070212059e-01  3.3195842212297366e-01  3.3916466689050528e-01  -2.1565640380879977e-01  -2.1163155355228433e-01  -2.0812991274410139e-01  -2.0506490970027721e-01  -2.0237926071962395e-01  -2.0001312484950515e-01  -1.9791028661917973e-01  -1.9601659916199662e-01  -1.9427997327032595e-01  -1.9265060414806798e-01  -1.9108045438903162e-01  -1.8952330007793991e-01  -1.8793451559145111e-01  -1.8627097899700226e-01  -1.8449098395349470e-01  -1.8255418378407826e-01  -1.8042156499899362e-01  -1.7805544791381586e-01  -1.7541951129856789e-01  -1.7247883854276555e-01  -1.6919998235368336e-01  -1.6555104530784789e-01  -1.6150177402692337e-01  -1.5702366509361762e-01  -1.5209008091555412e-01  -1.4667637434965333e-01  -1.4076002075184388e-01  -1.3432075664145068e-01  -1.2734072390415399e-01  -1.1980461893148983e-01  -1.1169984566465464e-01  -1.0301667198262619e-01  -9.3748388286796255e-02  -8.3891467635178837e-02  -7.3445726036197354e-02  -6.2414482098368397e-02  -5.0804714320342594e-02  -3.8627215057344101e-02  -2.5896739130827108e-02  -1.2632146116429578e-02  1.1434659610463284e-03  1.5402636498498289e-02  3.0113430529862727e-02  4.5239340495607981e-02  6.0739204419219893e-02  7.6567140516875756e-02  9.2672499628218011e-02  1.0899983476917831e-01  1.2548889152185108e-01  1.4207461960390957e-01  1.5868720702224229e-01  1.7525212855539210e-01  1.9169021240059395e-01  2.0791772534324518e-01  2.2384647993157983e-01  2.3938395089517964e-01  2.5443343102393579e-01  2.6889416914227615e-01  2.8266159478380271e-01  2.9562727859177507e-01  3.0767938481729340e-01  3.1870276488457172e-01  3.2857822126610703e-01  3.3718487908833472e-01  3.4438470215618544e-01  -2.2582685271005684e-01  -2.2195668313919523e-01  -2.1858255058994211e-01  -2.1561801480080486e-01  -2.1300629906186550e-01  -2.1068787843037448e-01  -2.0860672451479975e-01  -2.0670878710192483e-01  -2.0494197640361975e-01  -2.0325648706760011e-01  -2.0160429309081859e-01  -1.9993924495097556e-01  -1.9821688447363980e-01  -1.9639437363777865e-01  -1.9443041966643634e-01  -1.9228522694990954e-01  -1.8992047171952151e-01  -1.8729929908446849e-01  -1.8438634106624260e-01  -1.8114775391486890e-01  -1.7755127233323129e-01  -1.7356627891674278e-01  -1.6916388684851200e-01  -1.6431703411600404e-01  -1.5900058791197072e-01  -1.5319145775186818e-01  -1.4686871632449219e-01  -1.4001372688779187e-01  -1.3261027646331933e-01  -1.2464471376447855e-01  -1.1610609121380293e-01  -1.0698630997861207e-01  -9.7280267373087134e-02  -8.6986005439477418e-02  -7.6104859983756698e-02  -6.