<?xml version="1.0"?>
<VTKFile type="UnstructuredGrid"  version="0.1"  >
<UnstructuredGrid>
<Piece  NumberOfPoints="4225" NumberOfCells="8192">
<Points>
<DataArray  type="Float64"  NumberOfComponents="3"  format="ascii">0 0 0  0.015625 0 0  0.03125 0 0  0.046875 0 0  0.0625 0 0  0.078125 0 0  0.09375 0 0  0.109375 0 0  0.125 0 0  0.140625 0 0  0.15625 0 0  0.171875 0 0  0.1875 0 0  0.203125 0 0  0.21875 0 0  0.234375 0 0  0.25 0 0  0.265625 0 0  0.28125 0 0  0.296875 0 0  0.3125 0 0  0.328125 0 0  0.34375 0 0  0.359375 0 0  0.375 0 0  0.390625 0 0  0.40625 0 0  0.421875 0 0  0.4375 0 0  0.453125 0 0  0.46875 0 0  0.484375 0 0  0.5 0 0  0.515625 0 0  0.53125 0 0  0.546875 0 0  0.5625 0 0  0.578125 0 0  0.59375 0 0  0.609375 0 0  0.625 0 0  0.640625 0 0  0.65625 0 0  0.671875 0 0  0.6875 0 0  0.703125 0 0  0.71875 0 0  0.734375 0 0  0.75 0 0  0.765625 0 0  0.78125 0 0  0.796875 0 0  0.8125 0 0  0.828125 0 0  0.84375 0 0  0.859375 0 0  0.875 0 0  0.890625 0 0  0.90625 0 0  0.921875 0 0  0.9375 0 0  0.953125 0 0  0.96875 0 0  0.984375 0 0  1 0 0  0 0.015625 0  0.015625 0.015625 0  0.03125 0.015625 0  0.046875 0.015625 0  0.0625 0.015625 0  0.078125 0.015625 0  0.09375 0.015625 0  0.109375 0.015625 0  0.125 0.015625 0  0.140625 0.015625 0  0.15625 0.015625 0  0.171875 0.015625 0  0.1875 0.015625 0  0.203125 0.015625 0  0.21875 0.015625 0  0.234375 0.015625 0  0.25 0.015625 0  0.265625 0.015625 0  0.28125 0.015625 0  0.296875 0.015625 0  0.3125 0.015625 0  0.328125 0.015625 0  0.34375 0.015625 0  0.359375 0.015625 0  0.375 0.015625 0  0.390625 0.015625 0  0.40625 0.015625 0  0.421875 0.015625 0  0.4375 0.015625 0  0.453125 0.015625 0  0.46875 0.015625 0  0.484375 0.015625 0  0.5 0.015625 0  0.515625 0.015625 0  0.53125 0.015625 0  0.546875 0.015625 0  0.5625 0.015625 0  0.578125 0.015625 0  0.59375 0.015625 0  0.609375 0.015625 0  0.625 0.015625 0  0.640625 0.015625 0  0.65625 0.015625 0  0.671875 0.015625 0  0.6875 0.015625 0  0.703125 0.015625 0  0.71875 0.015625 0  0.734375 0.015625 0  0.75 0.015625 0  0.765625 0.015625 0  0.78125 0.015625 0  0.796875 0.015625 0  0.8125 0.015625 0  0.828125 0.015625 0  0.84375 0.015625 0  0.859375 0.015625 0  0.875 0.015625 0  0.890625 0.015625 0  0.90625 0.015625 0  0.921875 0.015625 0  0.9375 0.015625 0  0.953125 0.015625 0  0.96875 0.015625 0  0.984375 0.015625 0  1 0.015625 0  0 0.03125 0  0.015625 0.03125 0  0.03125 0.03125 0  0.046875 0.03125 0  0.0625 0.03125 0  0.078125 0.03125 0  0.09375 0.03125 0  0.109375 0.03125 0  0.125 0.03125 0  0.140625 0.03125 0  0.15625 0.03125 0  0.171875 0.03125 0  0.1875 0.03125 0  0.203125 0.03125 0  0.21875 0.03125 0  0.234375 0.03125 0  0.25 0.03125 0  0.265625 0.03125 0  0.28125 0.03125 0  0.296875 0.03125 0  0.3125 0.03125 0  0.328125 0.03125 0  0.34375 0.03125 0  0.359375 0.03125 0  0.375 0.03125 0  0.390625 0.03125 0  0.40625 0.03125 0  0.421875 0.03125 0  0.4375 0.03125 0  0.453125 0.03125 0  0.46875 0.03125 0  0.484375 0.03125 0  0.5 0.03125 0  0.515625 0.03125 0  0.53125 0.03125 0  0.546875 0.03125 0  0.5625 0.03125 0  0.578125 0.03125 0  0.59375 0.03125 0  0.609375 0.03125 0  0.625 0.03125 0  0.640625 0.03125 0  0.65625 0.03125 0  0.671875 0.03125 0  0.6875 0.03125 0  0.703125 0.03125 0  0.71875 0.03125 0  0.734375 0.03125 0  0.75 0.03125 0  0.765625 0.03125 0  0.78125 0.03125 0  0.796875 0.03125 0  0.8125 0.03125 0  0.828125 0.03125 0  0.84375 0.03125 0  0.859375 0.03125 0  0.875 0.03125 0  0.890625 0.03125 0  0.90625 0.03125 0  0.921875 0.03125 0  0.9375 0.03125 0  0.953125 0.03125 0  0.96875 0.03125 0  0.984375 0.03125 0  1 0.03125 0  0 0.046875 0  0.015625 0.046875 0  0.03125 0.046875 0  0.046875 0.046875 0  0.0625 0.046875 0  0.078125 0.046875 0  0.09375 0.046875 0  0.109375 0.046875 0  0.125 0.046875 0  0.140625 0.046875 0  0.15625 0.046875 0  0.171875 0.046875 0  0.1875 0.046875 0  0.203125 0.046875 0  0.21875 0.046875 0  0.234375 0.046875 0  0.25 0.046875 0  0.265625 0.046875 0  0.28125 0.046875 0  0.296875 0.046875 0  0.3125 0.046875 0  0.328125 0.046875 0  0.34375 0.046875 0  0.359375 0.046875 0  0.375 0.046875 0  0.390625 0.046875 0  0.40625 0.046875 0  0.421875 0.046875 0  0.4375 0.046875 0  0.453125 0.046875 0  0.46875 0.046875 0  0.484375 0.046875 0  0.5 0.046875 0  0.515625 0.046875 0  0.53125 0.046875 0  0.546875 0.046875 0  0.5625 0.046875 0  0.578125 0.046875 0  0.59375 0.046875 0  0.609375 0.046875 0  0.625 0.046875 0  0.640625 0.046875 0  0.65625 0.046875 0  0.671875 0.046875 0  0.6875 0.046875 0  0.703125 0.046875 0  0.71875 0.046875 0  0.734375 0.046875 0  0.75 0.046875 0  0.765625 0.046875 0  0.78125 0.046875 0  0.796875 0.046875 0  0.8125 0.046875 0  0.828125 0.046875 0  0.84375 0.046875 0  0.859375 0.046875 0  0.875 0.046875 0  0.890625 0.046875 0  0.90625 0.046875 0  0.921875 0.046875 0  0.9375 0.046875 0  0.953125 0.046875 0  0.96875 0.046875 0  0.984375 0.046875 0  1 0.046875 0  0 0.0625 0  0.015625 0.0625 0  0.03125 0.0625 0  0.046875 0.0625 0  0.0625 0.0625 0  0.078125 0.0625 0  0.09375 0.0625 0  0.109375 0.0625 0  0.125 0.0625 0  0.140625 0.0625 0  0.15625 0.0625 0  0.171875 0.0625 0  0.1875 0.0625 0  0.203125 0.0625 0  0.21875 0.0625 0  0.234375 0.0625 0  0.25 0.0625 0  0.265625 0.0625 0  0.28125 0.0625 0  0.296875 0.0625 0  0.3125 0.0625 0  0.328125 0.0625 0  0.34375 0.0625 0  0.359375 0.0625 0  0.375 0.0625 0  0.390625 0.0625 0  0.40625 0.0625 0  0.421875 0.0625 0  0.4375 0.0625 0  0.453125 0.0625 0  0.46875 0.0625 0  0.484375 0.0625 0  0.5 0.0625 0  0.515625 0.0625 0  0.53125 0.0625 0  0.546875 0.0625 0  0.5625 0.0625 0  0.578125 0.0625 0  0.59375 0.0625 0  0.609375 0.0625 0  0.625 0.0625 0  0.640625 0.0625 0  0.65625 0.0625 0  0.671875 0.0625 0  0.6875 0.0625 0  0.703125 0.0625 0  0.71875 0.0625 0  0.734375 0.0625 0  0.75 0.0625 0  0.765625 0.0625 0  0.78125 0.0625 0  0.796875 0.0625 0  0.8125 0.0625 0  0.828125 0.0625 0  0.84375 0.0625 0  0.859375 0.0625 0  0.875 0.0625 0  0.890625 0.0625 0  0.90625 0.0625 0  0.921875 0.0625 0  0.9375 0.0625 0  0.953125 0.0625 0  0.96875 0.0625 0  0.984375 0.0625 0  1 0.0625 0  0 0.078125 0  0.015625 0.078125 0  0.03125 0.078125 0  0.046875 0.078125 0  0.0625 0.078125 0  0.078125 0.078125 0  0.09375 0.078125 0  0.109375 0.078125 0  0.125 0.078125 0  0.140625 0.078125 0  0.15625 0.078125 0  0.171875 0.078125 0  0.1875 0.078125 0  0.203125 0.078125 0  0.21875 0.078125 0  0.234375 0.078125 0  0.25 0.078125 0  0.265625 0.078125 0  0.28125 0.078125 0  0.296875 0.078125 0  0.3125 0.078125 0  0.328125 0.078125 0  0.34375 0.078125 0  0.359375 0.078125 0  0.375 0.078125 0  0.390625 0.078125 0  0.40625 0.078125 0  0.421875 0.078125 0  0.4375 0.078125 0  0.453125 0.078125 0  0.46875 0.078125 0  0.484375 0.078125 0  0.5 0.078125 0  0.515625 0.078125 0  0.53125 0.078125 0  0.546875 0.078125 0  0.5625 0.078125 0  0.578125 0.078125 0  0.59375 0.078125 0  0.609375 0.078125 0  0.625 0.078125 0  0.640625 0.078125 0  0.65625 0.078125 0  0.671875 0.078125 0  0.6875 0.078125 0  0.703125 0.078125 0  0.71875 0.078125 0  0.734375 0.078125 0  0.75 0.078125 0  0.765625 0.078125 0  0.78125 0.078125 0  0.796875 0.078125 0  0.8125 0.078125 0  0.828125 0.078125 0  0.84375 0.078125 0  0.859375 0.078125 0  0.875 0.078125 0  0.890625 0.078125 0  0.90625 0.078125 0  0.921875 0.078125 0  0.9375 0.078125 0  0.953125 0.078125 0  0.96875 0.078125 0  0.984375 0.078125 0  1 0.078125 0  0 0.09375 0  0.015625 0.09375 0  0.03125 0.09375 0  0.046875 0.09375 0  0.0625 0.09375 0  0.078125 0.09375 0  0.09375 0.09375 0  0.109375 0.09375 0  0.125 0.09375 0  0.140625 0.09375 0  0.15625 0.09375 0  0.171875 0.09375 0  0.1875 0.09375 0  0.203125 0.09375 0  0.21875 0.09375 0  0.234375 0.09375 0  0.25 0.09375 0  0.265625 0.09375 0  0.28125 0.09375 0  0.296875 0.09375 0  0.3125 0.09375 0  0.328125 0.09375 0  0.34375 0.09375 0  0.359375 0.09375 0  0.375 0.09375 0  0.390625 0.09375 0  0.40625 0.09375 0  0.421875 0.09375 0  0.4375 0.09375 0  0.453125 0.09375 0  0.46875 0.09375 0  0.484375 0.09375 0  0.5 0.09375 0  0.515625 0.09375 0  0.53125 0.09375 0  0.546875 0.09375 0  0.5625 0.09375 0  0.578125 0.09375 0  0.59375 0.09375 0  0.609375 0.09375 0  0.625 0.09375 0  0.640625 0.09375 0  0.65625 0.09375 0  0.671875 0.09375 0  0.6875 0.09375 0  0.703125 0.09375 0  0.71875 0.09375 0  0.734375 0.09375 0  0.75 0.09375 0  0.765625 0.09375 0  0.78125 0.09375 0  0.796875 0.09375 0  0.8125 0.09375 0  0.828125 0.09375 0  0.84375 0.09375 0  0.859375 0.09375 0  0.875 0.09375 0  0.890625 0.09375 0  0.90625 0.09375 0  0.921875 0.09375 0  0.9375 0.09375 0  0.953125 0.09375 0  0.96875 0.09375 0  0.984375 0.09375 0  1 0.09375 0  0 0.109375 0  0.015625 0.109375 0  0.03125 0.109375 0  0.046875 0.109375 0  0.0625 0.109375 0  0.078125 0.109375 0  0.09375 0.109375 0  0.109375 0.109375 0  0.125 0.109375 0  0.140625 0.109375 0  0.15625 0.109375 0  0.171875 0.109375 0  0.1875 0.109375 0  0.203125 0.109375 0  0.21875 0.109375 0  0.234375 0.109375 0  0.25 0.109375 0  0.265625 0.109375 0  0.28125 0.109375 0  0.296875 0.109375 0  0.3125 0.109375 0  0.328125 0.109375 0  0.34375 0.109375 0  0.359375 0.109375 0  0.375 0.109375 0  0.390625 0.109375 0  0.40625 0.109375 0  0.421875 0.109375 0  0.4375 0.109375 0  0.453125 0.109375 0  0.46875 0.109375 0  0.484375 0.109375 0  0.5 0.109375 0  0.515625 0.109375 0  0.53125 0.109375 0  0.546875 0.109375 0  0.5625 0.109375 0  0.578125 0.109375 0  0.59375 0.109375 0  0.609375 0.109375 0  0.625 0.109375 0  0.640625 0.109375 0  0.65625 0.109375 0  0.671875 0.109375 0  0.6875 0.109375 0  0.703125 0.109375 0  0.71875 0.109375 0  0.734375 0.109375 0  0.75 0.109375 0  0.765625 0.109375 0  0.78125 0.109375 0  0.796875 0.109375 0  0.8125 0.109375 0  0.828125 0.109375 0  0.84375 0.109375 0  0.859375 0.109375 0  0.875 0.109375 0  0.890625 0.109375 0  0.90625 0.109375 0  0.921875 0.109375 0  0.9375 0.109375 0  0.953125 0.109375 0  0.96875 0.109375 0  0.984375 0.109375 0  1 0.109375 0  0 0.125 0  0.015625 0.125 0  0.03125 0.125 0  0.046875 0.125 0  0.0625 0.125 0  0.078125 0.125 0  0.09375 0.125 0  0.109375 0.125 0  0.125 0.12
[...]
<PointData  Scalars="f_1122"> 
<DataArray  type="Float64"  Name="f_1122"  format="ascii">-9.0987221030460544e-03  -6.9669918159860145e-03  -3.7122584863935404e-03  -1.0043498397236602e-04  3.3930469013139430e-03  6.5242603853781422e-03  9.1601774867869010e-03  1.1238756391609005e-02  1.2742200504140454e-02  1.3680991934893715e-02  1.4083960791646331e-02  1.3991946681664501e-02  1.3453709918831679e-02  1.2523156210573448e-02  1.1257390513039554e-02  9.7153438160664449e-03  7.9568007394201987e-03  6.0416965507739317e-03  4.0295989622334471e-03  1.9793267612742338e-03  -5.1343046778320319e-05  -2.0058975609343688e-03  -3.8292725577154596e-03  -5.4680025042930036e-03  -6.8703602968150724e-03  -7.9864838301393140e-03  -8.7685083665071453e-03  -9.1706989951443121e-03  -9.1495984658701360e-03  -8.6641834070738041e-03  -7.6760417257517389e-03  -6.1495638840329070e-03  -4.0521584829184909e-03  -1.3544843393140458e-03  1.9692920020200266e-03  5.9412211490284172e-03  1.0579271341112494e-02  1.5897013190116625e-02  2.1903282866037731e-02  2.8601833028252276e-02  3.5990967989214327e-02  4.4063174167013462e-02  5.2804743029313282e-02  6.2195399763471458e-02  7.2207937664237956e-02  8.2807875314397275e-02  9.3953137452663885e-02  1.0559378200288273e-01  1.1767177704861533e-01  1.3012086316808438e-01  1.4286650887583233e-01  1.5582601137446431e-01  1.6890874646167434e-01  1.8201667755448450e-01  1.9504517649710265e-01  2.0788428704900189e-01  2.2042058154686475e-01  2.3253985248453860e-01  2.4413127478869481e-01  2.5509509774956030e-01  2.6535184789884703e-01  2.7486556039699250e-01  2.8367021703139583e-01  2.9194527186178965e-01  3.0027839367351072e-01  -2.3230856016899427e-02  -2.1163179356351348e-02  -1.8390215563872638e-02  -1.5370558923421408e-02  -1.2398092498535386e-02  -9.6841420016519977e-03  -7.3581679227092489e-03  -5.4888478758305737e-03  -4.1043016219130890e-03  -3.2048071898409325e-03  -2.7715707355166841e-03  -2.7726196478405707e-03  -3.1668808368221302e-03  -3.9070836501500028e-03  -4.9418404078722467e-03  -6.2171399325307930e-03  -7.6774424750858184e-03  -9.2664931433259282e-03  -1.0927933274404535e-02  -1.2605765627089240e-02  -1.4244715448389768e-02  -1.5790516961997826e-02  -1.7190147538807300e-02  -1.8392026364255389e-02  -1.9346190377383200e-02  -2.0004457529046372e-02  -2.0320585008105553e-02  -2.0250428935209071e-02  -1.9752109813542737e-02  -1.8786187993441346e-02  -1.7315851660707073e-02  -1.5307120257441333e-02  -1.2729064033916417e-02  -9.5540414843050328e-03  -5.7579544802639293e-03  -1.3205219074284645e-03  3.7744299711923923e-03  9.5386607425205425e-03  1.5979195272721534e-02  2.3097990912657650e-02  3.0891596970956246e-02  3.9350809657451545e-02  4.8460328262718753e-02  5.8198418057453759e-02  6.8536588577946547e-02  7.9439295927785661e-02  9.0863680401416250e-02  1.0275935210546640e-01  1.1506824212499202e-01  1.2772453944488585e-01  1.4065474135160907e-01  1.5377784767508687e-01  1.6700575190275704e-01  1.8024388370979996e-01  1.9339218490796786e-01  2.0634653037677800e-01  2.1900080053544582e-01  2.3124991827083055e-01  2.4299442293868004e-01  2.5414687714800754e-01  2.6464197758307462e-01  2.7445291823878515e-01  2.8361105818376986e-01  2.9226653907154576e-01  3.0063131022101208e-01  -3.8683317874023328e-02  -3.6230961092378312e-02  -3.3499546256112046e-02  -3.0706136562764975e-02  -2.8010666945012398e-02  -2.5558894975878689e-02  -2.3444592770161178e-02  -2.1724137630960684e-02  -2.0423434601538150e-02  -1.9545050936312848e-02  -1.9074449586134336e-02  -1.8984588438268425e-02  -1.9239402940768736e-02  -1.9796412224114525e-02  -2.0608654813520012e-02  -2.1626139389331313e-02  -2.2796952327403842e-02  -2.4068100474872824e-02  -2.5386161291660582e-02  -2.6697790775829545e-02  -2.7950126935824417e-02  -2.9091116207253888e-02  -3.0069784564225911e-02  -3.0836469765197806e-02  -3.1343027585459628e-02  -3.1543021581375209e-02  -3.1391905018890755e-02  -3.0847200394758141e-02  -2.9868682353189777e-02  -2.8418566695926746e-02  -2.6461709976380178e-02  -2.3965820371774561e-02  -2.0901682984203675e-02  -1.7243398800370825e-02  -1.2968639722915933e-02  -8.0589174384580811e-03  -2.4998673177979236e-03  3.7184560248180376e-03  1.0601271355695573e-02  1.8148756446577451e-02  2.6355728246141095e-02  3.5211323772511370e-02  4.4698685428002947e-02  5.4794659070163586e-02  6.5469511549360884e-02  7.6686677799934447e-02  8.8402547456128758e-02  1.0056630504969589e-01  1.1311984152628086e-01  1.2599775907497393e-01  1.3912749603542721e-01  1.5242960434669198e-01  1.6581822324665388e-01  1.7920179497158897e-01  1.9248410435974342e-01  2.0556576206584423e-01  2.1834629283614773e-01  2.3072700986727937e-01  2.4261492713656455e-01  2.5392785172356547e-01  2.6460173069896653e-01  2.7459996291200284e-01  2.8392090164770467e-01  2.9260641058783454e-01  3.0065036198331319e-01  -5.4653374057636241e-02  -5.1682456640971909e-02  -4.8787754677967789e-02  -4.6018538647990305e-02  -4.3439563451296716e-02  -4.1127526401649718e-02  -3.9138128195308687e-02  -3.7508412178434127e-02  -3.6254283319324877e-02  -3.5374721244587383e-02  -3.4855047257647188e-02  -3.4669909843427084e-02  -3.4785882335055952e-02  -3.5163530466349326e-02  -3.5759039258153470e-02  -3.6525516660066627e-02  -3.7414013003109738e-02  -3.8374325971602043e-02  -3.9355641216102778e-02  -4.0307047709189005e-02  -4.1177956263525585e-02  -4.1918445487155488e-02  -4.2479554617701566e-02  -4.2813537333789876e-02  -4.2874088806727419e-02  -4.2616554912620154e-02  -4.1998131754858066e-02  -4.0978060881767593e-02  -3.9517825327432525e-02  -3.7581349984815791e-02  -3.5135209540321517e-02  -3.2148845924231929e-02  -2.8594796711636929e-02  -2.4448935689391972e-02  -1.9690725558396883e-02  -1.4303482899485888e-02  -8.2746537893533048e-03  -1.5960997172266087e-03  5.7356095264271744e-03  1.3718897574183340e-02  2.2346883218377543e-02  3.1607084723740207e-02  4.1481134721874223e-02  5.1944509702885243e-02  6.2966284258718211e-02  7.4508915289683411e-02  8.6528071595211489e-02  9.8972520446253057e-02  1.1178409443087479e-01  1.2489775298978635e-01  1.3824176414772318e-01  1.5173803008842771e-01  1.6530258985301852e-01  1.7884635927000139e-01  1.9227615637379539e-01  2.0549613918435131e-01  2.1840962297677050e-01  2.3092150365539513e-01  2.4294113474750881e-01  2.5438602278554745e-01  2.6518608898166196e-01  2.7528708821880388e-01  2.8464930314612324e-01  2.9324340422179818e-01  3.0099654391648167e-01  -7.0640455534923804e-02  -6.7204035179417851e-02  -6.4078763177205497e-02  -6.1228101106763445e-02  -5.8659157385533713e-02  -5.6396975626477476e-02  -5.4464342958858027e-02  -5.2875587559356931e-02  -5.1633716563598699e-02  -5.0730937254267673e-02  -5.0149380577805248e-02  -4.9862951950973435e-02  -4.9838939075436774e-02  -5.0039444827864911e-02  -5.0422658849250658e-02  -5.0943923199870490e-02  -5.1556602134121811e-02  -5.2212803807641019e-02  -5.2863974494188094e-02  -5.3461390204003291e-02  -5.3956566234837446e-02  -5.4301605273100885e-02  -5.4449496751899785e-02  -5.4354381387445729e-02  -5.3971789629740398e-02  -5.3258863605408470e-02  -5.2174568056242855e-02  -5.0679896770296391e-02  -4.8738077897544474e-02  -4.6314782494251812e-02  -4.3378338394725748e-02  -3.9899951828743375e-02  -3.5853937877326304e-02  -3.1217960584719685e-02  -2.5973283172618801e-02  -2.0105027406957722e-02  -1.3602441939694600e-02  -6.4591769599611016e-03  1.3264357906526338e-03  9.7511024837853219e-03  1.8806287934540110e-02  2.8477944418924282e-02  3.8746251080169512e-02  4.9585372828505857e-02  6.0963243005208965e-02  7.2841383844303845e-02  8.5174774620136354e-02  9.7911786126865699e-02  1.1099418936281015e-01  1.2435725465000892e-01  1.3792995468475724e-01  1.5163530326401367e-01  1.6539086471253753e-01  1.7910947615793441e-01  1.9270022244502363e-01  2.0606966129710183e-01  2.1912333889107585e-01  2.3176760920899533e-01  2.4391171009749837e-01  2.5547012855350859e-01  2.6636436594333679e-01  2.7652321594752616e-01  2.8587975413813416e-01  2.9436782590278598e-01  3.0189079653078510e-01  -8.6375851473023277e-02  -8.2561370701160083e-02  -7.9205457300368196e-02  -7.6233859586020566e-02  -7.3619560394208014e-02  -7.1352755197339843e-02  -6.9428913856389038e-02  -6.7843130431457496e-02  -6.6585695054009561e-02  -6.5640495337090585e-02  -6.4985019670274577e-02  -6.4590949996490496e-02  -6.4424903879760839e-02  -6.4449375230394720e-02  -6.4623634188425191e-02  -6.4904511627639203e-02  -6.5247104086142635e-02  -6.5605383920847457e-02  -6.5932720565413980e-02  -6.6182325849853715e-02  -6.6307639271882421e-02  -6.6262661834980849e-02  -6.6002251104145690e-02  -6.5482385427234821e-02  -6.4660406966146541e-02  -6.3495248485039721e-02  -6.1947651269136240e-02  -5.9980377206146136e-02  -5.7558420506381346e-02  -5.4649220508206815e-02  -5.1222879560324765e-02  -4.7252386174855866e-02  -4.2713846100477106e-02  -3.7586720437047895e-02  -3.1854072279266600e-02  -2.5502819918086096e-02  -1.8523996831926272e-02  -1.0913015317194109e-02  -2.6699327300725240e-03  6.2002840383046575e-03  1.5687498005128940e-02  2.5776151023205317e-02  3.6445025949563024e-02  4.7667030522658548e-02  5.9409010687613971e-02  7.1631605756637309e-02  8.4289153511990747e-02  9.7329653785278150e-02  1.1069479654274962e-01  1.2432007111368205e-01  1.3813498257833559e-01  1.5206340142520738e-01  1.6602407276051781e-01  1.7993128280163354e-01  1.9369569863388938e-01  2.0722535432870440e-01  2.2042686471945497e-01  2.3320673924062255e-01  2.4547285962843682e-01  2.5713573065154272e-01  2.6810887546014373e-01  2.7830860658621726e-01  2.8765168742842295e-01  2.9605412068761527e-01  3.0341308121473043e-01  -1.0170173295680550e-01  -9.7601235364242797e-02  -9.4049117414788816e-02  -9.0955236658584168e-02  -8.8273926957967527e-02  -8.5972532061312709e-02  -8.4027691077683139e-02  -8.2419166063603541e-02  -8.1125575265720049e-02  -8.0122938168854171e-02  -7.9383667000059596e-02  -7.8876392762476918e-02  -7.8566245506471941e-02  -7.8415355155875929e-02  -7.8383372999407883e-02  -7.8428030046276728e-02  -7.8505674771227593e-02  -7.8571756997370609e-02  -7.8581262917875358e-02  -7.8489105564149772e-02  -7.8250471340107416e-02  -7.7821130402254454e-02  -7.7157716885744784e-02  -7.6217986548381231e-02  -7.4961055861815049e-02  -7.3347629366874598e-02  -7.1340218119261875e-02  -6.8903354805888661e-02  -6.6003806842633544e-02  -6.2610791892612663e-02  -5.8696195866011748e-02  -5.4234796837033507e-02  -4.9204493697384256e-02  -4.3586542037206334e-02  -3.7365794926878949e-02  -3.0530950123461277e-02  -2.3074800142286779e-02  -1.4994485750122390e-02  -6.2917482089226229e-03  3.0268201456471666e-03  1.2949533066779283e-02  2.3459377447502726e-02  3.4533798979695461e-02  4.6144511267470344e-02  5.8257338722003803e-02  7.0832096564474437e-02  8.3822515301190462e-02  9.7176214320727108e-02  1.1083474289120156e-01  1.2473370913580696e-01  1.3880301636709239e-01  1.5296721068643973e-01  1.6714593654056345e-01  1.8125449994177781e-01  1.9520455209605328e-01  2.0890490917934382e-01  2.2226251468076622e-01  2.3518337137672865e-01  2.4757357611819100e-01  2.5933981724299926e-01  2.7038955812926346e-01  2.8063106310308727e-01  2.8997206713207824e-01  2.9832075549307913e-01  3.0557440248800827e-01  -1.1653009910327448e-01  -1.1222889186845796e-01  -1.0852722347875331e-01  -1.0532948977258559e-01  -1.0258014019140525e-01  -1.0023314185288389e-01  -9.8252345858368381e-02  -9.6605660784958788e-02  -9.5262530411179588e-02  -9.4192096440315329e-02  -9.3361835621459152e-02  -9.2737171927243386e-02  -9.2281406760171367e-02  -9.1955834416178814e-02  -9.1720024565993472e-02  -9.1532193390999370e-02  -9.1349571302118834e-02  -9.1128769402882823e-02  -9.0826132734001183e-02  -9.0398067931109036e-02  -8.9801345661224205e-02  -8.8993380513212247e-02  -8.7932491572859414e-02  -8.6578145872754572e-02  -8.4891189774119621e-02  -8.2834070555884973e-02  -8.0371052943034191e-02  -7.7468431852554365e-02  -7.4094745472998907e-02  -7.0220988912676405e-02  -6.5820831832829399e-02  -6.0870839183787419e-02  -5.5350697691062968e-02  -4.9243446104400769e-02  -4.2535711084523788e-02  -3.5217945631261773e-02  -2.7284671104048398e-02  -1.8734718657141804e-02  -9.5714701927793536e-03  1.9690675773766724e-04  1.0557231743343574e-02  2.1491099223800235e-02  3.2974684519107476e-02  4.4978575661313046e-02  5.7467632889358210e-02  7.0400882849126503e-02  8.3731453271966863e-02  9.7406565099722023e-02  1.1136759658682661e-01  1.2555023000650015e-01  1.3988467527470586e-01  1.5429596901224321e-01  1.6870435429425748e-01  1.8302576356707559e-01  1.9717241075774042e-01  2.1105348184438635e-01  2.2457584834444735e-01  2.3764474022925833e-01  2.5016445190384173e-01  2.6203858005037484e-01  2.7317045796214767e-01  2.8346347707084130e-01  2.9282060203117100e-01  3.0114665192685708e-01  3.0833955332579022e-01  -1.3081596877823418e-01  -1.2638892365855400e-01  -1.2258651017186060e-01  -1.1931230112430423e-01  -1.1650630155153995e-01  -1.1411501239742460e-01  -1.1209356191149043e-01  -1.1040171271902353e-01  -1.0900190466495439e-01  -1.0785755307148358e-01  -1.0693184748265371e-01  -1.0618726049715720e-01  -1.0558518012501648e-01  -1.0508586005480346e-01  -1.0464855113622716e-01  -1.0423168224641931e-01  -1.0379310074145563e-01  -1.0329034444825523e-01  -1.0268091340712247e-01  -1.0192253555926954e-01  -1.0097342526502794e-01  -9.9792530382320485e-02  -9.8339768430545912e-02  -9.6576252871457810e-02  -9.4464512154852229e-02  -9.1968702951743739e-02  -8.9054820317018599e-02  -8.5690906201711409e-02  -8.1847258540753087e-02  -7.7496641971080249e-02  -7.2614501520643512e-02  -6.7179179878173942e-02  -6.1172138503084540e-02  -5.4578182749451233e-02  -4.7385690072687538e-02  -3.9586841072399494e-02  -3.1177851089539833e-02  -2.2159201543067254e-02  -1.2535867088331078e-02  -2.3175369117771428e-03  8.4811754901084266e-03  1.9840536072182523e-02  3.1735513621255172e-02  4.4135624109460612e-02  5.7004803616846032e-02  7.0301315263446421e-02  8.3977704623033680e-02  9.7980811359371880e-02  1.1225184268641898e-01  1.2672650164517532e-01  1.4133517278634947e-01  1.5600317865092442e-01  1.7065112392892304e-01  1.8519533020756954e-01  1.9954833577038980e-01  2.1361942554935445e-01  2.2731515841625119e-01  2.4053991172792347e-01  2.5319642496306027e-01  2.6518605937658046e-01  2.7640947430057672e-01  2.8676703604696474e-01  2.9615901490640306e-01  3.0448840803474919e-01  3.1165320842378375e-01  -1.4454153469557338e-01  -1.4005246693477066e-01  -1.3619536486284775e-01  -1.3287509793010985e-01  -1.3003027821035149e-01  -1.2760319482658186e-01  -1.2554362284305529e-01  -1.2380583132319932e-01  -1.2234703908047416e-01  -1.2112624626206613e-01  -1.2010319223141218e-01  -1.1923775734393825e-01  -1.1848956107660034e-01  -1.1781784508556180e-01  -1.1718143583405081e-01  -1.1653882275924075e-01  -1.1584831234724689e-01  -1.1506820846873710e-01  -1.1415701406431498e-01  -1.1307364522626283e-01  -1.1177764663109278e-01  -1.1022940516079381e-01  -1.0839036053332372e-01  -1.0622321265025202e-01  -1.0369212585643893e-01  -1.0076293123945428e-01  -9.7403328023127581e-02  -9.3583085277256797e-02  -8.9274245048373571e-02  -8.4451327704489890e-02  -7.9091540333169022e-02  -7.3174988298513419e-02  -6.6684890375388980e-02  -5.9607796733007846e-02  -5.1933809668505450e-02  -4.3656805363326480e-02  -3.4774655868649453e-02  -2.5289448405249583e-02  -1.5207700414833193e-02  -4.5405663762292181e-03  6.6959655036977960e-03  1.8480891207285376e-02  3.0788025644849192e-02  4.3585860723331725e-02  5.6837452132443532e-02  7.0500344948142515e-02  8.4526542364484994e-02  9.8862520359864550e-02  1.1344928456564098e-01  1.2822247549715818e-01  1.4311253604914323e-01  1.5804495374672459e-01  1.7294057111113673e-01  1.8771594491312851e-01  2.0228373510534017e-01  2.1655311816896330e-01  2.3043024927935821e-01  2.4381872708536492e-01  2.5662005514266184e-01  2.6873399334751502e-01  2.8005929962323295e-01  2.9049426057346928e-01  2.9993730355390680e-01  3.0828990465585493e-01  3.1544862780855709e-01  -1.5770612031920714e-01  -1.5320842166616264e-01  -1.4933799751412377e-01  -1.4600177269076695e-01  -1.4313837057857046e-01  -1.4068797659449236e-01  -1.3859727875266767e-01  -1.3681686567804305e-01  -1.3530029874527535e-01  -1.3400336610794447e-01  -1.3288308534555579e-01  -1.3189722687217784e-01  -1.3100395305695553e-01  -1.3016159593269513e-01  -1.2932856820084246e-01  -1.2846338313675496e-01  -1.2752472372237630e-01  -1.2647156024775105e-01  -1.2526329961256341e-01  -1.2385995142362770e-01  -1.2222230455407866e-01  -1.2031211002132634e-01  -1.1809226684717720e-01  -1.1552700950889865e-01  -1.1258209647084159e-01  -1.0922499981741761e-01  -1.0542509631871831e-01  -1.0115386044443608e-01  -9.6385059809838566e-02  -9.1094953505706816e-02  -8.5262493551797366e-02  -7.8869529577238237e-02  -7.1901016490342737e-02  -6.4345224702407652e-02  -5.6193951996854598e-02  -4.7442735917980740e-02  -3.8091064973942747e-02  -2.8142586841784036e-02  -1.7605311166427363e-02  -6.4918046910338112e-03  5.1806243246086603e-03  1.7389755464946054e-02  3.0108304104779847e-02  4.3303792984802601e-02  5.6938453681977717e-02  7.0969161136647876e-02  8.5347403029663940e-02  1.0001928403846484e-01  1.1492557197610688e-01  1.3000179719999541e-01  1.4517841245054222e-01  1.6038100468010311e-01  1.7553054437594010e-01  1.9054366955924443e-01  2.0533300813378566e-01  2.1980754531778104e-01  2.3387304110044485e-01  2.4743239385007201e-01  2.6038608776233962e-01  2.7263262738372607e-01  2.8406924855198712e-01  2.9459253895318005e-01  3.0409913446549730e-01  3.1248852226234947e-01  3.1965431334579053e-01  -1.7031987633494181e-01  -1.6585769930300051e-01  -1.6200996017967959e-01  -1.5868562827675234e-01  -1.5582399729166127e-01  -1.5336445742530588e-01  -1.5125194628554992e-01  -1.4943474140030408e-01  -1.4786398034649093e-01  -1.4649314911966502e-01  -1.4527724082564816e-01  -1.4417245206076676e-01  -1.4313578944772673e-01  -1.4212485890119894e-01  -1.4109776208266320e-01  -1.4001305685361529e-01  -1.3882978263932108e-01  -1.3750753397876933e-01  -1.3600656539903441e-01  -1.3428791914690139e-01  -1.3231356907870093e-01  -1.3004657573351172e-01  -1.2745124888954248e-01  -1.2449331586741523e-01  -1.2114009395842250e-01  -1.1736066674848365e-01  -1.1312606367696333e-01  -1.0840944320322275e-01  -1.0318627918684735e-01  -9.7434550957289146e-02  -9.1134936554411697e-02  -8.4271009384048454e-02  -7.6829437386771490e-02  -6.8800184511657134e-02  -6.0176713055720012e-02  -5.0956186105911440e-02  -4.1139668087977067e-02  -3.0732322114467393e-02  -1.9743601605946882e-02  -8.1874342094230071e-03  3.9176053764746954e-03  1.6548136912523347e-02  2.9675834978790248e-02  4.3267311841334054e-02  5.7284025926572356e-02  7.1682217391467309e-02  8.6412873363396883e-02  1.0142172872171785e-01  1.1664931098412602e-01  1.3203103234692296e-01  1.4749732297458354e-01  1.6297379557067695e-01  1.7838144669523850e-01  1.9363690011589754e-01  2.0865269372706677e-01  2.2333760034614650e-01  2.3759696787975806e-01  2.5133301443227474e-01  2.6444533091564759e-01  2.7683128908063193e-01  2.8838666453888395e-01  2.9900634150471994e-01  3.0858485639838573e-01  3.1701905207776049e-01  3.2419814162977634e-01  -1.8239978193178771e-01  -1.7800920356497582e-01  -1.7421468975366758e-01  -1.7092694593875832e-01  -1.6808620869970012e-01  -1.6563173822707242e-01  -1.6350758289647646e-01  -1.6166068924514151e-01  -1.6004062217283740e-01  -1.5859930341443970e-01  -1.5729034115958981e-01  -1.5606879663678327e-01  -1.5489084214348844e-01  -1.5371358731204540e-01  -1.5249495206974981e-01  -1.5119360883215058e-01  -1.4976898181584949e-01  -1.4818128759801516e-01  -1.4639160743186405e-01  -1.4436198537224096e-01  -1.4205554517997274e-01  -1.3943662123749831e-01  -1.3647090028121697e-01  -1.3312557156550134e-01  -1.2936948381298927e-01  -1.2517330788673806e-01  -1.2050970452022446e-01  -1.1535349664485935e-01  -1.0968184601958576e-01  -1.0347443382871199e-0