<?xml version="1.0"?>
<VTKFile type="UnstructuredGrid"  version="0.1"  >
<UnstructuredGrid>
<Piece  NumberOfPoints="1089" NumberOfCells="2048">
<Points>
<DataArray  type="Float64"  NumberOfComponents="3"  format="ascii">0 0 0  0.03125 0 0  0.0625 0 0  0.09375 0 0  0.125 0 0  0.15625 0 0  0.1875 0 0  0.21875 0 0  0.25 0 0  0.28125 0 0  0.3125 0 0  0.34375 0 0  0.375 0 0  0.40625 0 0  0.4375 0 0  0.46875 0 0  0.5 0 0  0.53125 0 0  0.5625 0 0  0.59375 0 0  0.625 0 0  0.65625 0 0  0.6875 0 0  0.71875 0 0  0.75 0 0  0.78125 0 0  0.8125 0 0  0.84375 0 0  0.875 0 0  0.90625 0 0  0.9375 0 0  0.96875 0 0  1 0 0  0 0.03125 0  0.03125 0.03125 0  0.0625 0.03125 0  0.09375 0.03125 0  0.125 0.03125 0  0.15625 0.03125 0  0.1875 0.03125 0  0.21875 0.03125 0  0.25 0.03125 0  0.28125 0.03125 0  0.3125 0.03125 0  0.34375 0.03125 0  0.375 0.03125 0  0.40625 0.03125 0  0.4375 0.03125 0  0.46875 0.03125 0  0.5 0.03125 0  0.53125 0.03125 0  0.5625 0.03125 0  0.59375 0.03125 0  0.625 0.03125 0  0.65625 0.03125 0  0.6875 0.03125 0  0.71875 0.03125 0  0.75 0.03125 0  0.78125 0.03125 0  0.8125 0.03125 0  0.84375 0.03125 0  0.875 0.03125 0  0.90625 0.03125 0  0.9375 0.03125 0  0.96875 0.03125 0  1 0.03125 0  0 0.0625 0  0.03125 0.0625 0  0.0625 0.0625 0  0.09375 0.0625 0  0.125 0.0625 0  0.15625 0.0625 0  0.1875 0.0625 0  0.21875 0.0625 0  0.25 0.0625 0  0.28125 0.0625 0  0.3125 0.0625 0  0.34375 0.0625 0  0.375 0.0625 0  0.40625 0.0625 0  0.4375 0.0625 0  0.46875 0.0625 0  0.5 0.0625 0  0.53125 0.0625 0  0.5625 0.0625 0  0.59375 0.0625 0  0.625 0.0625 0  0.65625 0.0625 0  0.6875 0.0625 0  0.71875 0.0625 0  0.75 0.0625 0  0.78125 0.0625 0  0.8125 0.0625 0  0.84375 0.0625 0  0.875 0.0625 0  0.90625 0.0625 0  0.9375 0.0625 0  0.96875 0.0625 0  1 0.0625 0  0 0.09375 0  0.03125 0.09375 0  0.0625 0.09375 0  0.09375 0.09375 0  0.125 0.09375 0  0.15625 0.09375 0  0.1875 0.09375 0  0.21875 0.09375 0  0.25 0.09375 0  0.28125 0.09375 0  0.3125 0.09375 0  0.34375 0.09375 0  0.375 0.09375 0  0.40625 0.09375 0  0.4375 0.09375 0  0.46875 0.09375 0  0.5 0.09375 0  0.53125 0.09375 0  0.5625 0.09375 0  0.59375 0.09375 0  0.625 0.09375 0  0.65625 0.09375 0  0.6875 0.09375 0  0.71875 0.09375 0  0.75 0.09375 0  0.78125 0.09375 0  0.8125 0.09375 0  0.84375 0.09375 0  0.875 0.09375 0  0.90625 0.09375 0  0.9375 0.09375 0  0.96875 0.09375 0  1 0.09375 0  0 0.125 0  0.03125 0.125 0  0.0625 0.125 0  0.09375 0.125 0  0.125 0.125 0  0.15625 0.125 0  0.1875 0.125 0  0.21875 0.125 0  0.25 0.125 0  0.28125 0.125 0  0.3125 0.125 0  0.34375 0.125 0  0.375 0.125 0  0.40625 0.125 0  0.4375 0.125 0  0.46875 0.125 0  0.5 0.125 0  0.53125 0.125 0  0.5625 0.125 0  0.59375 0.125 0  0.625 0.125 0  0.65625 0.125 0  0.6875 0.125 0  0.71875 0.125 0  0.75 0.125 0  0.78125 0.125 0  0.8125 0.125 0  0.84375 0.125 0  0.875 0.125 0  0.90625 0.125 0  0.9375 0.125 0  0.96875 0.125 0  1 0.125 0  0 0.15625 0  0.03125 0.15625 0  0.0625 0.15625 0  0.09375 0.15625 0  0.125 0.15625 0  0.15625 0.15625 0  0.1875 0.15625 0  0.21875 0.15625 0  0.25 0.15625 0  0.28125 0.15625 0  0.3125 0.15625 0  0.34375 0.15625 0  0.375 0.15625 0  0.40625 0.15625 0  0.4375 0.15625 0  0.46875 0.15625 0  0.5 0.15625 0  0.53125 0.15625 0  0.5625 0.15625 0  0.59375 0.15625 0  0.625 0.15625 0  0.65625 0.15625 0  0.6875 0.15625 0  0.71875 0.15625 0  0.75 0.15625 0  0.78125 0.15625 0  0.8125 0.15625 0  0.84375 0.15625 0  0.875 0.15625 0  0.90625 0.15625 0  0.9375 0.15625 0  0.96875 0.15625 0  1 0.15625 0  0 0.1875 0  0.03125 0.1875 0  0.0625 0.1875 0  0.09375 0.1875 0  0.125 0.1875 0  0.15625 0.1875 0  0.1875 0.1875 0  0.21875 0.1875 0  0.25 0.1875 0  0.28125 0.1875 0  0.3125 0.1875 0  0.34375 0.1875 0  0.375 0.1875 0  0.40625 0.1875 0  0.4375 0.1875 0  0.46875 0.1875 0  0.5 0.1875 0  0.53125 0.1875 0  0.5625 0.1875 0  0.59375 0.1875 0  0.625 0.1875 0  0.65625 0.1875 0  0.6875 0.1875 0  0.71875 0.1875 0  0.75 0.1875 0  0.78125 0.1875 0  0.8125 0.1875 0  0.84375 0.1875 0  0.875 0.1875 0  0.90625 0.1875 0  0.9375 0.1875 0  0.96875 0.1875 0  1 0.1875 0  0 0.21875 0  0.03125 0.21875 0  0.0625 0.21875 0  0.09375 0.21875 0  0.125 0.21875 0  0.15625 0.21875 0  0.1875 0.21875 0  0.21875 0.21875 0  0.25 0.21875 0  0.28125 0.21875 0  0.3125 0.21875 0  0.34375 0.21875 0  0.375 0.21875 0  0.40625 0.21875 0  0.4375 0.21875 0  0.46875 0.21875 0  0.5 0.21875 0  0.53125 0.21875 0  0.5625 0.21875 0  0.59375 0.21875 0  0.625 0.21875 0  0.65625 0.21875 0  0.6875 0.21875 0  0.71875 0.21875 0  0.75 0.21875 0  0.78125 0.21875 0  0.8125 0.21875 0  0.84375 0.21875 0  0.875 0.21875 0  0.90625 0.21875 0  0.9375 0.21875 0  0.96875 0.21875 0  1 0.21875 0  0 0.25 0  0.03125 0.25 0  0.0625 0.25 0  0.09375 0.25 0  0.125 0.25 0  0.15625 0.25 0  0.1875 0.25 0  0.21875 0.25 0  0.25 0.25 0  0.28125 0.25 0  0.3125 0.25 0  0.34375 0.25 0  0.375 0.25 0  0.40625 0.25 0  0.4375 0.25 0  0.46875 0.25 0  0.5 0.25 0  0.53125 0.25 0  0.5625 0.25 0  0.59375 0.25 0  0.625 0.25 0  0.65625 0.25 0  0.6875 0.25 0  0.71875 0.25 0  0.75 0.25 0  0.78125 0.25 0  0.8125 0.25 0  0.84375 0.25 0  0.875 0.25 0  0.90625 0.25 0  0.9375 0.25 0  0.96875 0.25 0  1 0.25 0  0 0.28125 0  0.03125 0.28125 0  0.0625 0.28125 0  0.09375 0.28125 0  0.125 0.28125 0  0.15625 0.28125 0  0.1875 0.28125 0  0.21875 0.28125 0  0.25 0.28125 0  0.28125 0.28125 0  0.3125 0.28125 0  0.34375 0.28125 0  0.375 0.28125 0  0.40625 0.28125 0  0.4375 0.28125 0  0.46875 0.28125 0  0.5 0.28125 0  0.53125 0.28125 0  0.5625 0.28125 0  0.59375 0.28125 0  0.625 0.28125 0  0.65625 0.28125 0  0.6875 0.28125 0  0.71875 0.28125 0  0.75 0.28125 0  0.78125 0.28125 0  0.8125 0.28125 0  0.84375 0.28125 0  0.875 0.28125 0  0.90625 0.28125 0  0.9375 0.28125 0  0.96875 0.28125 0  1 0.28125 0  0 0.3125 0  0.03125 0.3125 0  0.0625 0.3125 0  0.09375 0.3125 0  0.125 0.3125 0  0.15625 0.3125 0  0.1875 0.3125 0  0.21875 0.3125 0  0.25 0.3125 0  0.28125 0.3125 0  0.3125 0.3125 0  0.34375 0.3125 0  0.375 0.3125 0  0.40625 0.3125 0  0.4375 0.3125 0  0.46875 0.3125 0  0.5 0.3125 0  0.53125 0.3125 0  0.5625 0.3125 0  0.59375 0.3125 0  0.625 0.3125 0  0.65625 0.3125 0  0.6875 0.3125 0  0.71875 0.3125 0  0.75 0.3125 0  0.78125 0.3125 0  0.8125 0.3125 0  0.84375 0.3125 0  0.875 0.3125 0  0.90625 0.3125 0  0.9375 0.3125 0  0.96875 0.3125 0  1 0.3125 0  0 0.34375 0  0.03125 0.34375 0  0.0625 0.34375 0  0.09375 0.34375 0  0.125 0.34375 0  0.15625 0.34375 0  0.1875 0.34375 0  0.21875 0.34375 0  0.25 0.34375 0  0.28125 0.34375 0  0.3125 0.34375 0  0.34375 0.34375 0  0.375 0.34375 0  0.40625 0.34375 0  0.4375 0.34375 0  0.46875 0.34375 0  0.5 0.34375 0  0.53125 0.34375 0  0.5625 0.34375 0  0.59375 0.34375 0  0.625 0.34375 0  0.65625 0.34375 0  0.6875 0.34375 0  0.71875 0.34375 0  0.75 0.34375 0  0.78125 0.34375 0  0.8125 0.34375 0  0.84375 0.34375 0  0.875 0.34375 0  0.90625 0.34375 0  0.9375 0.34375 0  0.96875 0.34375 0  1 0.34375 0  0 0.375 0  0.03125 0.375 0  0.0625 0.375 0  0.09375 0.375 0  0.125 0.375 0  0.15625 0.375 0  0.1875 0.375 0  0.21875 0.375 0  0.25 0.375 0  0.28125 0.375 0  0.3125 0.375 0  0.34375 0.375 0  0.375 0.375 0  0.40625 0.375 0  0.4375 0.375 0  0.46875 0.375 0  0.5 0.375 0  0.53125 0.375 0  0.5625 0.375 0  0.59375 0.375 0  0.625 0.375 0  0.65625 0.375 0  0.6875 0.375 0  0.71875 0.375 0  0.75 0.375 0  0.78125 0.375 0  0.8125 0.375 0  0.84375 0.375 0  0.875 0.375 0  0.90625 0.375 0  0.9375 0.375 0  0.96875 0.375 0  1 0.375 0  0 0.40625 0  0.03125 0.40625 0  0.0625 0.40625 0  0.09375 0.40625 0  0.125 0.40625 0  0.15625 0.40625 0  0.1875 0.40625 0  0.21875 0.40625 0  0.25 0.40625 0  0.28125 0.40625 0  0.3125 0.40625 0  0.34375 0.40625 0  0.375 0.40625 0  0.40625 0.40625 0  0.4375 0.40625 0  0.46875 0.40625 0  0.5 0.40625 0  0.53125 0.40625 0  0.5625 0.40625 0  0.59375 0.40625 0  0.625 0.40625 0  0.65625 0.40625 0  0.6875 0.40625 0  0.71875 0.40625 0  0.75 0.40625 0  0.78125 0.40625 0  0.8125 0.40625 0  0.84375 0.40625 0  0.875 0.40625 0  0.90625 0.40625 0  0.9375 0.40625 0  0.96875 0.40625 0  1 0.40625 0  0 0.4375 0  0.03125 0.4375 0  0.0625 0.4375 0  0.09375 0.4375 0  0.125 0.4375 0  0.15625 0.4375 0  0.1875 0.4375 0  0.21875 0.4375 0  0.25 0.4375 0  0.28125 0.4375 0  0.3125 0.4375 0  0.34375 0.4375 0  0.375 0.4375 0  0.40625 0.4375 0  0.4375 0.4375 0  0.46875 0.4375 0  0.5 0.4375 0  0.53125 0.4375 0  0.5625 0.4375 0  0.59375 0.4375 0  0.625 0.4375 0  0.65625 0.4375 0  0.6875 0.4375 0  0.71875 0.4375 0  0.75 0.4375 0  0.78125 0.4375 0  0.8125 0.4375 0  0.84375 0.4375 0  0.875 0.4375 0  0.90625 0.4375 0  0.9375 0.4375 0  0.96875 0.4375 0  1 0.4375 0  0 0.46875 0  0.03125 0.46875 0  0.0625 0.46875 0  0.09375 0.46875 0  0.125 0.46875 0  0.15625 0.46875 0  0.1875 0.46875 0  0.21875 0.46875 0  0.25 0.46875 0  0.28125 0.46875 0  0.3125 0.46875 0  0.34375 0.46875 0  0.375 0.46875 0  0.40625 0.46875 0  0.4375 0.46875 0  0.46875 0.46875 0  0.5 0.46875 0  0.53125 0.46875 0  0.5625 0.46875 0  0.59375 0.46875 0  0.625 0.46875 0  0.65625 0.46875 0  0.6875 0.46875 0  0.71875 0.46875 0  0.75 0.46875 0  0.78125 0.46875 0  0.8125 0.46875 0  0.84375 0.46875 0  0.875 0.46875 0  0.90625 0.46875 0  0.9375 0.46875 0  0.96875 0.46875 0  1 0.46875 0  0 0.5 0  0.03125 0.5 0  0.0625 0.5 0  0.09375 0.5 0  0.125 0.5 0  0.15625 0.5 0  0.1875 0.5 0  0.21875 0.5 0  0.25 0.5 0  0.28125 0.5 0  0.3125 0.5 0  0.34375 0.5 0  0.375 0.5 0  0.40625 0.5 0  0.4375 0.5 0  0.46875 0.5 0  0.5 0.5 0  0.53125 0.5 0  0.5625 0.5 0  0.59375 0.5 0  0.625 0.5 0  0.65625 0.5 0  0.6875 0.5 0  0.71875 0.5 0  0.75 0.5 0  0.78125 0.5 0  0.8125 0.5 0  0.84375 0.5 0  0.875 0.5 0  0.90625 0.5 0  0.9375 0.5 0  0.96875 0.5 0  1 0.5 0  0 0.53125 0  0.03125 0.53125 0  0.0625 0.53125 0  0.09375 0.53125 0  0.125 0.53125 0  0.15625 0.53125 0  0.1875 0.53125 0  0.21875 0.53125 0  0.25 0.53125 0  0.28125 0.53125 0  0.3125 0.53125 0  0.34375 0.53125 0  0.375 0.53125 0  0.40625 0.53125 0  0.4375 0.53125 0  0.46875 0.53125 0  0.5 0.53125 0  0.53125 0.53125 0  0.5625 0.53125 0  0.59375 0.53125 0  0.625 0.53125 0  0.65625 0.53125 0  0.6875 0.53125 0  0.71875 0.53125 0  0.75 0.53125 0  0.78125 0.531
[...]
<PointData  Scalars="f_901"> 
<DataArray  type="Float64"  Name="f_901"  format="ascii">-7.9023167670272909e-01  -7.9023533735945417e-01  -7.9022000127664005e-01  -7.9020451180686258e-01  -7.9019365975741218e-01  -7.9018879441722445e-01  -7.9019092951929881e-01  -7.9020038179233043e-01  -7.9021720480413649e-01  -7.9024133181536971e-01  -7.9027265494013643e-01  -7.9031107795317279e-01  -7.9035654499817820e-01  -7.9040905426295860e-01  -7.9046865946096201e-01  -7.9053546046896472e-01  -7.9060958373923629e-01  -7.9069115274423418e-01  -7.9078024871439812e-01  -7.9087686211067076e-01  -7.9098083585022483e-01  -7.9109180157748793e-01  -7.9120911248005932e-01  -7.9133177342861893e-01  -7.9145839626364500e-01  -7.9158707474526180e-01  -7.9171570356411380e-01  -7.9184134135317064e-01  -7.9195993183593294e-01  -7.9207796105913908e-01  -7.9218822848480175e-01  -7.9207935647530525e-01  -7.9416102284918155e-01  -7.9023759341481048e-01  -7.9023852709452314e-01  -7.9022573281406272e-01  -7.9021532291960606e-01  -7.9020735480368287e-01  -7.9020405717651632e-01  -7.9020647299227631e-01  -7.9021509029114601e-01  -7.9023015657399265e-01  -7.9025177030166938e-01  -7.9027996921314259e-01  -7.9031477929184768e-01  -7.9035624205089827e-01  -7.9040442673553257e-01  -7.9045943027940790e-01  -7.9052136709165532e-01  -7.9059034990506571e-01  -7.9066646263379858e-01  -7.9074972619957573e-01  -7.9084005851352845e-01  -7.9093723031657193e-01  -7.9104081918084623e-01  -7.9115016576570518e-01  -7.9126433684000519e-01  -7.9138210539994047e-01  -7.9150195776944310e-01  -7.9162220732122313e-01  -7.9174079198468550e-01  -7.9185735916108557e-01  -7.9196953983468932e-01  -7.9207202473274541e-01  -7.9225097766122610e-01  -7.9221636079524727e-01  -7.9025602760896241e-01  -7.9025307711019732e-01  -7.9023938406295180e-01  -7.9023002494565397e-01  -7.9022288475040880e-01  -7.9022009426187190e-01  -7.9022221620026412e-01  -7.9022975886053137e-01  -7.9024301821280241e-01  -7.9026217273809629e-01  -7.9028734922967059e-01  -7.9031865729523987e-01  -7.9035621131733680e-01  -7.9040013905776219e-01  -7.9045057975851574e-01  -7.9050767351157192e-01  -7.9057154321849277e-01  -7.9064227039235813e-01  -7.9071986612867740e-01  -7.9080423882800688e-01  -7.9089516078199784e-01  -7.9099223628882298e-01  -7.9109487589447491e-01  -7.9120228006078186e-01  -7.9131344976681972e-01  -7.9142720686904133e-01  -7.9154233599296975e-01  -7.9165759236407207e-01  -7.9177276430809262e-01  -7.9188501922716459e-01  -7.9201003822208194e-01  -7.9209703067637405e-01  -7.9228611261734128e-01  -7.9027374609123535e-01  -7.9026517770723703e-01  -7.9024883592653883e-01  -7.9023867724670294e-01  -7.9023125337725830e-01  -7.9022810163662183e-01  -7.9022941366587596e-01  -7.9023562212751719e-01  -7.9024697608708805e-01  -7.9026367885886994e-01  -7.9028590213858796e-01  -7.9031380896894876e-01  -7.9034756731687528e-01  -7.9038735372512603e-01  -7.9043334916486407e-01  -7.9048572791528893e-01  -7.9054464066996688e-01  -7.9061019312750225e-01  -7.9068242149363965e-01  -7.9076126659754387e-01  -7.9084654881464722e-01  -7.9093794642330661e-01  -7.9103498165807062e-01  -7.9113701735035069e-01  -7.9124327880764911e-01  -7.9135287943010080e-01  -7.9146497704749619e-01  -7.9157865187012455e-01  -7.9169394498281420e-01  -7.9180925897932020e-01  -7.9193111524467430e-01  -7.9203470384832786e-01  -7.9223122595232209e-01  -7.9028643096887052e-01  -7.9027419704109503e-01  -7.9025537600125206e-01  -7.9024374989127066e-01  -7.9023529760877897e-01  -7.9023115326085913e-01  -7.9023123669779893e-01  -7.9023583206596004e-01  -7.9024511740075631e-01  -7.9025928851627592e-01  -7.9027853416438631e-01  -7.9030305194208750e-01  -7.9033305153098321e-01  -7.9036875359839276e-01  -7.9041038320017531e-01  -7.9045815806632469e-01  -7.9051227270436975e-01  -7.9057287940011389e-01  -7.9064006746749493e-01  -7.9071384236148412e-01  -7.9079410668672323e-01  -7.9088064537573421e-01  -7.9097311872137244e-01  -7.9107106466936550e-01  -7.9117392341076331e-01  -7.9128105783087910e-01  -7.9139188970043395e-01  -7.9150571387091384e-01  -7.9162282959917707e-01  -7.9174072212406699e-01  -7.9186819163962674e-01  -7.9197400788851269e-01  -7.9217096849779067e-01  -7.9029284042324588e-01  -7.9027824192328433e-01  -7.9025720901609942e-01  -7.9024401896187002e-01  -7.9023425149099347e-01  -7.9022879135919255e-01  -7.9022735918372478e-01  -7.9023011567001589e-01  -7.9023717667656457e-01  -7.9024871677568131e-01  -7.9026493101395734e-01  -7.9028604244375544e-01  -7.9031229696025240e-01  -7.9034395844691507e-01  -7.9038129986751526e-01  -7.9042459103965923e-01  -7.9047408358101778e-01  -7.9052999390711365e-01  -7.9059248545611560e-01  -7.9066165153675272e-01  -7.9073750052413461e-01  -7.9081994517952059e-01  -7.9090879902230626e-01  -7.9100377975438074e-01  -7.9110453149739102e-01  -7.9121063370974465e-01  -7.9132172211624296e-01  -7.9143725589425318e-01  -7.9155761979618333e-01  -7.9168022224953793e-01  -7.9181415451457604e-01  -7.9192516066441843e-01  -7.9213987210044823e-01  -7.9029223501763068e-01  -7.9027648961111929e-01  -7.9025388873646052e-01  -7.9023937954137646e-01  -7.9022826360915843e-01  -7.9022134515291476e-01  -7.9021822398051111e-01  -7.9021898082166775e-01  -7.9022368478642213e-01  -7.9023249359903935e-01  -7.9024560934053234e-01  -7.9026327897072779e-01  -7.9028578445753284e-01  -7.9031343501696116e-01  -7.9034655649821772e-01  -7.9038547890276079e-01  -7.9043052211986520e-01  -7.9048198061381580e-01  -7.9054010800896191e-01  -7.9060510269582884e-01  -7.9067709581453449e-01  -7.9075614284887541e-01  -7.9084222105256929e-01  -7.9093523151565526e-01  -7.9103501684895550e-01  -7.9114135855890522e-01  -7.9125408773341255e-01  -7.9137280540225019e-01  -7.9149806208888118e-01  -7.9162710358676636e-01  -7.9176977663856052e-01  -7.9188935200409749e-01  -7.9212296422524431e-01  -7.9028456544338854e-01  -7.9026870276238959e-01  -7.9024514943362845e-01  -7.9022963421476267e-01  -7.9021727523359586e-01  -7.9020888343568452e-01  -7.9020399331873359e-01  -7.9020264797230044e-01  -7.9020489344376121e-01  -7.9021088428450681e-01  -7.9022083634067131e-01  -7.9023502444890770e-01  -7.9025377017062115e-01  -7.9027743217006896e-01  -7.9030639475688491e-01  -7.9034105550041422e-01  -7.9038181184268597e-01  -7.9042904732325803e-01  -7.9048311812908323e-01  -7.9054434081394231e-01  -7.9061298217059439e-01  -7.9068925197750073e-01  -7.9077330025532255e-01  -7.9086521689975964e-01  -7.9096504452363214e-01  -7.9107276556479889e-01  -7.9118840663877887e-01  -7.9131172447002474e-01  -7.9144346045194580e-01  -7.9158076268727728e-01  -7.9173440826808594e-01  -7.9186470901220174e-01  -7.9212081985209171e-01  -7.9027010114412377e-01  -7.9025494793824480e-01  -7.9023099262280216e-01  -7.9021481471894606e-01  -7.9020138287871533e-01  -7.9019156836919247e-01  -7.9018488737919634e-01  -7.9018138100502755e-01  -7.9018109569648542e-01  -7.9018419846106647e-01  -7.9019092892362508e-01  -7.9020159682880386e-01  -7.9021656882630786e-01  -7.9023625822800314e-01  -7.9026111348992245e-01  -7.9029160634447304e-01  -7.9032821950585852e-01  -7.9037143443886382e-01  -7.9042171970655728e-01  -7.9047952047771386e-01  -7.9054524982665553e-01  -7.9061928210086685e-01  -7.9070194951920847e-01  -7.9079353913872930e-01  -7.9089430124930593e-01  -7.9100442746967947e-01  -7.9112415225698030e-01  -7.9125340523983034e-01  -7.9139315245402186e-01  -7.9154046541508394e-01  -7.9170711778044067e-01  -7.9185023770471319e-01  -7.9213193527353432e-01  -7.9024929201338456e-01  -7.9023550124158726e-01  -7.9021160251422751e-01  -7.9019507293729707e-01  -7.9018074505516700e-01  -7.9016958661026948e-01  -7.9016112622622858e-01  -7.9015542932658489e-01  -7.9015256332809836e-01  -7.9015272286944183e-01  -7.9015618218570849e-01  -7.9016329386431772e-01  -7.9017447584504863e-01  -7.9019020153940200e-01  -7.9021098890660257e-01  -7.9023738957409140e-01  -7.9026997793141440e-01  -7.9030934059068769e-01  -7.9035606656717416e-01  -7.9041073851654242e-01  -7.9047392535108552e-01  -7.9054617611161504e-01  -7.9062801587491549e-01  -7.9071994021339420e-01  -7.9082241965158073e-01  -7.9093586955461381e-01  -7.9106075010585042e-01  -7.9119718406042083e-01  -7.9134638876115537e-01  -7.9150535687436330e-01  -7.9168692535376572e-01  -7.9184470405739904e-01  -7.9215472024337075e-01  -7.9022269355793706e-01  -7.9021076590676176e-01  -7.9018728339781985e-01  -7.9017066173678741e-01  -7.9015559800587187e-01  -7.9014317800160483e-01  -7.9013296257399523e-01  -7.9012506125731319e-01  -7.9011957886404027e-01  -7.9011675060633424e-01  -7.9011689522109041e-01  -7.9012041568445057e-01  -7.9012778717592291e-01  -7.9013954824758148e-01  -7.9015629106460339e-01  -7.9017865197457970e-01  -7.9020730233558933e-01  -7.9024293992870231e-01  -7.9028628116465716e-01  -7.9033805420238235e-01  -7.9039899301774341e-01  -7.9046983193928921e-01  -7.9055130108729954e-01  -7.9064411863155348e-01  -7.9074899170688595e-01  -7.9086657828230278e-01  -7.9099758578621659e-01  -7.9114235111103115e-01  -7.9130236573933055e-01  -7.9147453274834700e-01  -7.9167280711468968e-01  -7.9184691396019846e-01  -7.9218791246328579e-01  -7.9019091857609158e-01  -7.9018122405403046e-01  -7.9015842304689732e-01  -7.9014190960674047e-01  -7.9012623821110939e-01  -7.9011262621113332e-01  -7.9010067914757487e-01  -7.9009056435187308e-01  -7.9008243608066087e-01  -7.9007658030429828e-01  -7.9007336838954156e-01  -7.9007326005455814e-01  -7.9007679274666043e-01  -7.9008457435485724e-01  -7.9009727508966732e-01  -7.9011561992975121e-01  -7.9014038156105082e-01  -7.9017237407874219e-01  -7.9021244752765285e-01  -7.9026148319843692e-01  -7.9032038945465266e-01  -7.9039009726221565e-01  -7.9047155551845072e-01  -7.9056572145128579e-01  -7.9067355825099406e-01  -7.9079598869862644e-01  -7.9093399189978153e-01  -7.9108814141242689e-01  -7.9126022560577480e-01  -7.9144704368637431e-01  -7.9166372626745218e-01  -7.9185572814092864e-01  -7.9223035680892129e-01  -7.9015460988108699e-01  -7.9014740708131592e-01  -7.9012546634916958e-01  -7.9010920124348838e-01  -7.9009301199968129e-01  -7.9007825594343228e-01  -7.9006459026584519e-01  -7.9005224900514870e-01  -7.9004144415368083e-01  -7.9003251975367239e-01  -7.9002590577270848e-01  -7.9002212340373412e-01  -7.9002177610755431e-01  -7.9002554422449300e-01  -7.9003417888635785e-01  -7.9004849673945088e-01  -7.9006937538571287e-01  -7.9009774975541536e-01  -7.9013460935989566e-01  -7.9018099615550774e-01  -7.9023800253835108e-01  -7.9030676829975222e-01  -7.9038847627844144e-01  -7.9048434126985745e-01  -7.9059560455303690e-01  -7.9072347887082839e-01  -7.9086924245749346e-01  -7.9103373087070228e-01  -7.9121905492231792e-01  -7.9142189751819370e-01  -7.9165863203879749e-01  -7.9187003849195725e-01  -7.9228101135593887e-01  -7.9011442476869109e-01  -7.9010987762239659e-01  -7.9008889850955777e-01  -7.9007296437381702e-01  -7.9005630655019732e-01  -7.9004042752406489e-01  -7.9002503922470768e-01  -7.9001044763710804e-01  -7.8999692750747030e-01  -7.8998488552990143e-01  -7.8997481404603431e-01  -7.8996729869622906e-01  -7.8996301127795143e-01  -7.8996270653231537e-01  -7.8996721842704476e-01  -7.8997745752724557e-01  -7.8999440932701592e-01  -7.9001913369157895e-01  -7.9005276523626777e-01  -7.9009651419425353e-01  -7.9015166704490269e-01  -7.9021958538485870e-01  -7.9030170239430086e-01  -7.9039951066192504e-01  -7.9051455381610114e-01  -7.9064836246995940e-01  -7.9080254477781842e-01  -7.9097822765522730e-01  -7.9117787518149041e-01  -7.9139804705104022e-01  -7.9165644027104509e-01  -7.9188874004934084e-01  -7.9233889735633456e-01  -7.9007102722732603e-01  -7.9006921952710607e-01  -7.9004923487205514e-01  -7.9003366087884364e-01  -7.9001654311942049e-01  -7.8999953238359943e-01  -7.8998239560108052e-01  -7.8996551306413321e-01  -7.8994922454714112e-01  -7.8993400154597793e-01  -7.8992040047277334e-01  -7.8990907266203303e-01  -7.8990075916471736e-01  -7.8989628994833172e-01  -7.8989658285459341e-01  -7.8990264396468701e-01  -7.8991556919395089e-01  -7.8993654719553164e-01  -7.8996686328362931e-01  -7.9000790374880325e-01  -7.9006115960286483e-01  -7.9012822788639747e-01  -7.9021080948612954e-01  -7.9031069636169771e-01  -7.9042976061283721e-01  -7.9056988119888438e-01  -7.9073303056028754e-01  -7.9092066129698524e-01  -7.9113562870632959e-01  -7.9137437066184457e-01  -7.9165600606028663e-01  -7.9191069169146133e-01  -7.9240304653383964e-01  -7.9002508550684869e-01  -7.9002603330682741e-01  -7.9000701543056107e-01  -7.8999178137628590e-01  -7.8997417233098299e-01  -7.8995598924117361e-01  -7.8993705219510735e-01  -7.8991781590434385e-01  -7.8989868517414685e-01  -7.8988019633762774e-01  -7.8986296970310255e-01  -7.8984772196502240e-01  -7.8983526306267671e-01  -7.8982649801976190e-01  -7.8982242886038434e-01  -7.8982415829059227e-01  -7.8983289490217534e-01  -7.8984995990508433e-01  -7.8987679498030094e-01  -7.8991497046560255e-01  -7.8996619268541246e-01  -7.9003230821937653e-01  -7.9011530365609661e-01  -7.9021729281095010e-01  -7.9034050377102094e-01  -7.9048719654625899e-01  -7.9065974579348319e-01  -7.9085996966406813e-01  -7.9109116109033017e-01  -7.9134964811225683e-01  -7.9165609051752672e-01  -7.9193467182891775e-01  -7.9247244627338032e-01  -7.8997727353589142e-01  -7.8998093543639258e-01  -7.8996280269349850e-01  -7.8994784232414039e-01  -7.8992967102681633e-01  -7.8991024098770635e-01  -7.8988942202051615e-01  -7.8986774159322670e-01  -7.8984566765909792e-01  -7.8982379961564320e-01  -7.8980281986640144e-01  -7.8978350875376524e-01  -7.8976674364247079e-01  -7.8975350363053154e-01  -7.8974487469325028e-01  -7.8974205697524846e-01  -7.8974637391188707e-01  -7.8975928310673171e-01  -7.8978238845065141e-01  -7.8981745254060987e-01  -7.8986640801881047e-01  -7.8993136530826047e-01  -7.9001461490951397e-01  -7.9011861534182515e-01  -7.9024597897286464e-01  -7.9039938122159747e-01  -7.9058164010144183e-01  -7.9079498485523469e-01  -7.9104320181603760e-01  -7.9132253373313999e-01  -7.9165532433709007e-01  -7.9195933083679826e-01  -7.9254598144018162e-01  -7.8992827522126863e-01  -7.8993456038804133e-01  -7.8991718185396820e-01  -7.8990238484402653e-01  -7.8988354020758489e-01  -7.8986275208369383e-01  -7.8983993535242769e-01  -7.8981568714465544e-01  -7.8979053509821817e-01  -7.8976513836222562e-01  -7.8974023824530470e-01  -7.8971667587023142e-01  -7.8969539368294306e-01  -7.8967744327834233e-01  -7.8966399402869025e-01  -7.8965634424757414e-01  -7.8965593448531668e-01  -7.8966436280482877e-01  -7.8968340141935101e-01  -7.8971501363021979e-01  -7.8976136950755915e-01  -7.8982485754165865e-01  -7.8990809011973617e-01  -7.9001389303520475e-01  -7.9014529118359733e-01  -7.9030541050435232e-01  -7.9049755596352078e-01  -7.9072441878285682e-01  -7.9099034419738823e-01  -7.9129152839214623e-01  -7.9165216951345574e-01  -7.9198314092921396e-01  -7.9262237299261717e-01  -7.8987879093899382e-01  -7.8988756452934972e-01  -7.8987076240408183e-01  -7.8985597454704504e-01  -7.8983630356552470e-01  -7.8981400621395936e-01  -7.8978903679509749e-01  -7.8976205780361697e-01  -7.8973365172527754e-01  -7.8970453281289876e-01  -7.8967549691089944e-01  -7.8964744211590931e-01  -7.8962137295287760e-01  -7.8959841156896182e-01  -7.8957981008382006e-01  -7.8956696584774333e-01  -7.8956143910509569e-01  -7.8956497283870752e-01  -7.8957951408313232e-01  -7.8960723553683532e-01  -7.8965055580703924e-01  -7.8971215534470263e-01  -7.8979498567050710e-01  -7.8990226132976304e-01  -7.9003744690837041e-01  -7.9020415361527552e-01  -7.9040621823309287e-01  -7.9064684917206085e-01  -7.9093102555671813e-01  -7.9125495123790368e-01  -7.9164488004366329e-01  -7.9200434385699325e-01  -7.9270011285117703e-01  -7.8982954560856911e-01  -7.8984063109248914e-01  -7.8982418036228064e-01  -7.8980920163364965e-01  -7.8978850606929019e-01  -7.8976450388342667e-01  -7.8973718227316425e-01  -7.8970726367060406e-01  -7.8967537928859821e-01  -7.8964229262553098e-01  -7.8960884867494663e-01  -7.8957599795407929e-01  -7.8954480362031576e-01  -7.8951645628530032e-01  -7.8949229029951473e-01  -7.8947380327724193e-01  -7.8946267825329797e-01  -7.8946080817260333e-01  -7.8947032190707866e-01  -7.8949361056279566e-01  -7.8953335236250810e-01  -7.8959253302847876e-01  -7.8967445916256285e-01  -7.8978275373034346e-01  -7.8992134612058273e-01  -7.9009436548364542e-01  -7.9030622437076548e-01  -7.9056070634027886e-01  -7.9086350823907825e-01  -7.9121091197272109e-01  -7.9163146211515567e-01  -7.9202089638382356e-01  -7.9277739427798366e-01  -7.8978129779685946e-01  -7.8979447538712366e-01  -7.8977810027134232e-01  -7.8976268053898879e-01  -7.8974071209820595e-01  -7.8971475972218885e-01  -7.8968483597195571e-01  -7.8965171654532695e-01  -7.8961607391646371e-01  -7.8957871378648459e-01  -7.8954052399688890e-01  -7.8950250234563701e-01  -7.8946576692533399e-01  -7.8943157479130099e-01  -7.8940134235910908e-01  -7.8937666931127004e-01  -7.8935936530289474e-01  -7.8935147906542813e-01  -7.8935532903095407e-01  -7.8937353419433265e-01  -7.8940904345488350e-01  -7.8946516034825764e-01  -7.8954556104639573e-01  -7.8965429413138866e-01  -7.8979577475764740e-01  -7.8997467822077017e-01  -7.9019603455915921e-01  -7.9046426126176761e-01  -7.9078586248851401e-01  -7.9115728405976093e-01  -7.9160963375219295e-01  -7.9203041333962609e-01  -7.9285203705707219e-01  -7.8973484865641885e-01  -7.8974984913843105e-01  -7.8973321569501531e-01  -7.8971704801220821e-01  -7.8969350228852375e-01  -7.8966529895324777e-01  -7.8963246693775357e-01  -7.8959582688618113e-01  -7.8955608347387862e-01  -7.8951407629566095e-01  -7.8947072887277048e-01  -7.8942708068397682e-01  -7.8938430097804191e-01  -7.8934371148953186e-01  -7.8930681107584122e-01  -7.8927530407492941e-01  -7.8925113153490511e-01  -7.8923650481437879e-01  -7.8923394058627583e-01  -7.8924629590253548e-01  -7.8927680154382784e-01  -7.8932909094908821e-01  -7.8940722256913487e-01  -7.8951568355814250e-01  -7.8965939105477156e-01  -7.8984359093305767e-01  -7.9007396548574538e-01  -7.9035561707936419e-01  -7.9069595003518423e-01  -7.9109167836221683e-01  -7.9157678465363146e-01  -7.9203010785919381e-01  -7.9292140576414716e-01  -7.8969105123324757e-01  -7.8970754256589770e-01  -7.8969024713915459e-01  -7.8967295902989132e-01  -7.8964746905882977e-01  -7.8961665361286837e-01  -7.8958054646919962e-01  -7.8954000245743217e-01  -7.8949574735100547e-01  -7.8944864489764477e-01  -7.8939964628307424e-01  -7.8934982672299525e-01  -7.8930040291416037e-01  -7.8925275992221278e-01  -7.8920848013911105e-01  -7.8916937610844939e-01  -7.8913752620543853e-01  -7.8911531253965639e-01  -7.8910545998173021e-01  -7.8911107486791976e-01  -7.8913568180685600e-01  -7.8918325595466343e-01  -7.8925824827953206e-01  -7.8936559493715164e-01  -7.8951072767546648e-01  -7.8969947259298845e-01  -7.8993818115990844e-01  -7.9023269225482018e-01  -7.9059141039766101e-01  -7.9101142365508004e-01  -7.9152993461599097e-01  -7.9201672482060737e-01  -7.9298232077221953e-01  -7.8965081239639723e-01  -7.8966838043721910e-01  -7.8964993384191540e-01  -7.8963107689683842e-01  -7.8960320768059988e-01  -7.8956935565244912e-01  -7.8952954337054004e-01  -7.8948464541780128e-01  -7.8943539488527659e-01  -7.8938266833061121e-01  -7.8932743578943820e-01  -7.8927080204782096e-01  -7.8921402773952776e-01  -7.8915856044622190e-01  -7.8910606800957217e-01  -7.8905847582078725e-01  -7.8901800685829060e-01  -7.8898722365394658e-01  -7.8896907088531076e-01  -7.8896691707689159e-01  -7.8898459392496223e-01  -7.8902643009712969e-01  -7.8909727945945995e-01  -7.8920253568621246e-01  -7.8934814144817445e-01  -7.8954050028705569e-01  -7.8978666469543723e-01  -7.9009324226970601e-01  -7.9046967362375353e-01  -7.9091353334307657e-01  -7.9146567942360702e-01  -7.9198647510987774e-01  -7.9303096323131461e-01  -7.8961509385828244e-01  -7.8963321604877312e-01  -7.8961301985415888e-01  -7.8959206181871233e-01  -7.8956131012