<?xml version="1.0"?>
<VTKFile type="UnstructuredGrid"  version="0.1"  >
<UnstructuredGrid>
<Piece  NumberOfPoints="1089" NumberOfCells="2048">
<Points>
<DataArray  type="Float64"  NumberOfComponents="3"  format="ascii">0 0 0  0.03125 0 0  0.0625 0 0  0.09375 0 0  0.125 0 0  0.15625 0 0  0.1875 0 0  0.21875 0 0  0.25 0 0  0.28125 0 0  0.3125 0 0  0.34375 0 0  0.375 0 0  0.40625 0 0  0.4375 0 0  0.46875 0 0  0.5 0 0  0.53125 0 0  0.5625 0 0  0.59375 0 0  0.625 0 0  0.65625 0 0  0.6875 0 0  0.71875 0 0  0.75 0 0  0.78125 0 0  0.8125 0 0  0.84375 0 0  0.875 0 0  0.90625 0 0  0.9375 0 0  0.96875 0 0  1 0 0  0 0.03125 0  0.03125 0.03125 0  0.0625 0.03125 0  0.09375 0.03125 0  0.125 0.03125 0  0.15625 0.03125 0  0.1875 0.03125 0  0.21875 0.03125 0  0.25 0.03125 0  0.28125 0.03125 0  0.3125 0.03125 0  0.34375 0.03125 0  0.375 0.03125 0  0.40625 0.03125 0  0.4375 0.03125 0  0.46875 0.03125 0  0.5 0.03125 0  0.53125 0.03125 0  0.5625 0.03125 0  0.59375 0.03125 0  0.625 0.03125 0  0.65625 0.03125 0  0.6875 0.03125 0  0.71875 0.03125 0  0.75 0.03125 0  0.78125 0.03125 0  0.8125 0.03125 0  0.84375 0.03125 0  0.875 0.03125 0  0.90625 0.03125 0  0.9375 0.03125 0  0.96875 0.03125 0  1 0.03125 0  0 0.0625 0  0.03125 0.0625 0  0.0625 0.0625 0  0.09375 0.0625 0  0.125 0.0625 0  0.15625 0.0625 0  0.1875 0.0625 0  0.21875 0.0625 0  0.25 0.0625 0  0.28125 0.0625 0  0.3125 0.0625 0  0.34375 0.0625 0  0.375 0.0625 0  0.40625 0.0625 0  0.4375 0.0625 0  0.46875 0.0625 0  0.5 0.0625 0  0.53125 0.0625 0  0.5625 0.0625 0  0.59375 0.0625 0  0.625 0.0625 0  0.65625 0.0625 0  0.6875 0.0625 0  0.71875 0.0625 0  0.75 0.0625 0  0.78125 0.0625 0  0.8125 0.0625 0  0.84375 0.0625 0  0.875 0.0625 0  0.90625 0.0625 0  0.9375 0.0625 0  0.96875 0.0625 0  1 0.0625 0  0 0.09375 0  0.03125 0.09375 0  0.0625 0.09375 0  0.09375 0.09375 0  0.125 0.09375 0  0.15625 0.09375 0  0.1875 0.09375 0  0.21875 0.09375 0  0.25 0.09375 0  0.28125 0.09375 0  0.3125 0.09375 0  0.34375 0.09375 0  0.375 0.09375 0  0.40625 0.09375 0  0.4375 0.09375 0  0.46875 0.09375 0  0.5 0.09375 0  0.53125 0.09375 0  0.5625 0.09375 0  0.59375 0.09375 0  0.625 0.09375 0  0.65625 0.09375 0  0.6875 0.09375 0  0.71875 0.09375 0  0.75 0.09375 0  0.78125 0.09375 0  0.8125 0.09375 0  0.84375 0.09375 0  0.875 0.09375 0  0.90625 0.09375 0  0.9375 0.09375 0  0.96875 0.09375 0  1 0.09375 0  0 0.125 0  0.03125 0.125 0  0.0625 0.125 0  0.09375 0.125 0  0.125 0.125 0  0.15625 0.125 0  0.1875 0.125 0  0.21875 0.125 0  0.25 0.125 0  0.28125 0.125 0  0.3125 0.125 0  0.34375 0.125 0  0.375 0.125 0  0.40625 0.125 0  0.4375 0.125 0  0.46875 0.125 0  0.5 0.125 0  0.53125 0.125 0  0.5625 0.125 0  0.59375 0.125 0  0.625 0.125 0  0.65625 0.125 0  0.6875 0.125 0  0.71875 0.125 0  0.75 0.125 0  0.78125 0.125 0  0.8125 0.125 0  0.84375 0.125 0  0.875 0.125 0  0.90625 0.125 0  0.9375 0.125 0  0.96875 0.125 0  1 0.125 0  0 0.15625 0  0.03125 0.15625 0  0.0625 0.15625 0  0.09375 0.15625 0  0.125 0.15625 0  0.15625 0.15625 0  0.1875 0.15625 0  0.21875 0.15625 0  0.25 0.15625 0  0.28125 0.15625 0  0.3125 0.15625 0  0.34375 0.15625 0  0.375 0.15625 0  0.40625 0.15625 0  0.4375 0.15625 0  0.46875 0.15625 0  0.5 0.15625 0  0.53125 0.15625 0  0.5625 0.15625 0  0.59375 0.15625 0  0.625 0.15625 0  0.65625 0.15625 0  0.6875 0.15625 0  0.71875 0.15625 0  0.75 0.15625 0  0.78125 0.15625 0  0.8125 0.15625 0  0.84375 0.15625 0  0.875 0.15625 0  0.90625 0.15625 0  0.9375 0.15625 0  0.96875 0.15625 0  1 0.15625 0  0 0.1875 0  0.03125 0.1875 0  0.0625 0.1875 0  0.09375 0.1875 0  0.125 0.1875 0  0.15625 0.1875 0  0.1875 0.1875 0  0.21875 0.1875 0  0.25 0.1875 0  0.28125 0.1875 0  0.3125 0.1875 0  0.34375 0.1875 0  0.375 0.1875 0  0.40625 0.1875 0  0.4375 0.1875 0  0.46875 0.1875 0  0.5 0.1875 0  0.53125 0.1875 0  0.5625 0.1875 0  0.59375 0.1875 0  0.625 0.1875 0  0.65625 0.1875 0  0.6875 0.1875 0  0.71875 0.1875 0  0.75 0.1875 0  0.78125 0.1875 0  0.8125 0.1875 0  0.84375 0.1875 0  0.875 0.1875 0  0.90625 0.1875 0  0.9375 0.1875 0  0.96875 0.1875 0  1 0.1875 0  0 0.21875 0  0.03125 0.21875 0  0.0625 0.21875 0  0.09375 0.21875 0  0.125 0.21875 0  0.15625 0.21875 0  0.1875 0.21875 0  0.21875 0.21875 0  0.25 0.21875 0  0.28125 0.21875 0  0.3125 0.21875 0  0.34375 0.21875 0  0.375 0.21875 0  0.40625 0.21875 0  0.4375 0.21875 0  0.46875 0.21875 0  0.5 0.21875 0  0.53125 0.21875 0  0.5625 0.21875 0  0.59375 0.21875 0  0.625 0.21875 0  0.65625 0.21875 0  0.6875 0.21875 0  0.71875 0.21875 0  0.75 0.21875 0  0.78125 0.21875 0  0.8125 0.21875 0  0.84375 0.21875 0  0.875 0.21875 0  0.90625 0.21875 0  0.9375 0.21875 0  0.96875 0.21875 0  1 0.21875 0  0 0.25 0  0.03125 0.25 0  0.0625 0.25 0  0.09375 0.25 0  0.125 0.25 0  0.15625 0.25 0  0.1875 0.25 0  0.21875 0.25 0  0.25 0.25 0  0.28125 0.25 0  0.3125 0.25 0  0.34375 0.25 0  0.375 0.25 0  0.40625 0.25 0  0.4375 0.25 0  0.46875 0.25 0  0.5 0.25 0  0.53125 0.25 0  0.5625 0.25 0  0.59375 0.25 0  0.625 0.25 0  0.65625 0.25 0  0.6875 0.25 0  0.71875 0.25 0  0.75 0.25 0  0.78125 0.25 0  0.8125 0.25 0  0.84375 0.25 0  0.875 0.25 0  0.90625 0.25 0  0.9375 0.25 0  0.96875 0.25 0  1 0.25 0  0 0.28125 0  0.03125 0.28125 0  0.0625 0.28125 0  0.09375 0.28125 0  0.125 0.28125 0  0.15625 0.28125 0  0.1875 0.28125 0  0.21875 0.28125 0  0.25 0.28125 0  0.28125 0.28125 0  0.3125 0.28125 0  0.34375 0.28125 0  0.375 0.28125 0  0.40625 0.28125 0  0.4375 0.28125 0  0.46875 0.28125 0  0.5 0.28125 0  0.53125 0.28125 0  0.5625 0.28125 0  0.59375 0.28125 0  0.625 0.28125 0  0.65625 0.28125 0  0.6875 0.28125 0  0.71875 0.28125 0  0.75 0.28125 0  0.78125 0.28125 0  0.8125 0.28125 0  0.84375 0.28125 0  0.875 0.28125 0  0.90625 0.28125 0  0.9375 0.28125 0  0.96875 0.28125 0  1 0.28125 0  0 0.3125 0  0.03125 0.3125 0  0.0625 0.3125 0  0.09375 0.3125 0  0.125 0.3125 0  0.15625 0.3125 0  0.1875 0.3125 0  0.21875 0.3125 0  0.25 0.3125 0  0.28125 0.3125 0  0.3125 0.3125 0  0.34375 0.3125 0  0.375 0.3125 0  0.40625 0.3125 0  0.4375 0.3125 0  0.46875 0.3125 0  0.5 0.3125 0  0.53125 0.3125 0  0.5625 0.3125 0  0.59375 0.3125 0  0.625 0.3125 0  0.65625 0.3125 0  0.6875 0.3125 0  0.71875 0.3125 0  0.75 0.3125 0  0.78125 0.3125 0  0.8125 0.3125 0  0.84375 0.3125 0  0.875 0.3125 0  0.90625 0.3125 0  0.9375 0.3125 0  0.96875 0.3125 0  1 0.3125 0  0 0.34375 0  0.03125 0.34375 0  0.0625 0.34375 0  0.09375 0.34375 0  0.125 0.34375 0  0.15625 0.34375 0  0.1875 0.34375 0  0.21875 0.34375 0  0.25 0.34375 0  0.28125 0.34375 0  0.3125 0.34375 0  0.34375 0.34375 0  0.375 0.34375 0  0.40625 0.34375 0  0.4375 0.34375 0  0.46875 0.34375 0  0.5 0.34375 0  0.53125 0.34375 0  0.5625 0.34375 0  0.59375 0.34375 0  0.625 0.34375 0  0.65625 0.34375 0  0.6875 0.34375 0  0.71875 0.34375 0  0.75 0.34375 0  0.78125 0.34375 0  0.8125 0.34375 0  0.84375 0.34375 0  0.875 0.34375 0  0.90625 0.34375 0  0.9375 0.34375 0  0.96875 0.34375 0  1 0.34375 0  0 0.375 0  0.03125 0.375 0  0.0625 0.375 0  0.09375 0.375 0  0.125 0.375 0  0.15625 0.375 0  0.1875 0.375 0  0.21875 0.375 0  0.25 0.375 0  0.28125 0.375 0  0.3125 0.375 0  0.34375 0.375 0  0.375 0.375 0  0.40625 0.375 0  0.4375 0.375 0  0.46875 0.375 0  0.5 0.375 0  0.53125 0.375 0  0.5625 0.375 0  0.59375 0.375 0  0.625 0.375 0  0.65625 0.375 0  0.6875 0.375 0  0.71875 0.375 0  0.75 0.375 0  0.78125 0.375 0  0.8125 0.375 0  0.84375 0.375 0  0.875 0.375 0  0.90625 0.375 0  0.9375 0.375 0  0.96875 0.375 0  1 0.375 0  0 0.40625 0  0.03125 0.40625 0  0.0625 0.40625 0  0.09375 0.40625 0  0.125 0.40625 0  0.15625 0.40625 0  0.1875 0.40625 0  0.21875 0.40625 0  0.25 0.40625 0  0.28125 0.40625 0  0.3125 0.40625 0  0.34375 0.40625 0  0.375 0.40625 0  0.40625 0.40625 0  0.4375 0.40625 0  0.46875 0.40625 0  0.5 0.40625 0  0.53125 0.40625 0  0.5625 0.40625 0  0.59375 0.40625 0  0.625 0.40625 0  0.65625 0.40625 0  0.6875 0.40625 0  0.71875 0.40625 0  0.75 0.40625 0  0.78125 0.40625 0  0.8125 0.40625 0  0.84375 0.40625 0  0.875 0.40625 0  0.90625 0.40625 0  0.9375 0.40625 0  0.96875 0.40625 0  1 0.40625 0  0 0.4375 0  0.03125 0.4375 0  0.0625 0.4375 0  0.09375 0.4375 0  0.125 0.4375 0  0.15625 0.4375 0  0.1875 0.4375 0  0.21875 0.4375 0  0.25 0.4375 0  0.28125 0.4375 0  0.3125 0.4375 0  0.34375 0.4375 0  0.375 0.4375 0  0.40625 0.4375 0  0.4375 0.4375 0  0.46875 0.4375 0  0.5 0.4375 0  0.53125 0.4375 0  0.5625 0.4375 0  0.59375 0.4375 0  0.625 0.4375 0  0.65625 0.4375 0  0.6875 0.4375 0  0.71875 0.4375 0  0.75 0.4375 0  0.78125 0.4375 0  0.8125 0.4375 0  0.84375 0.4375 0  0.875 0.4375 0  0.90625 0.4375 0  0.9375 0.4375 0  0.96875 0.4375 0  1 0.4375 0  0 0.46875 0  0.03125 0.46875 0  0.0625 0.46875 0  0.09375 0.46875 0  0.125 0.46875 0  0.15625 0.46875 0  0.1875 0.46875 0  0.21875 0.46875 0  0.25 0.46875 0  0.28125 0.46875 0  0.3125 0.46875 0  0.34375 0.46875 0  0.375 0.46875 0  0.40625 0.46875 0  0.4375 0.46875 0  0.46875 0.46875 0  0.5 0.46875 0  0.53125 0.46875 0  0.5625 0.46875 0  0.59375 0.46875 0  0.625 0.46875 0  0.65625 0.46875 0  0.6875 0.46875 0  0.71875 0.46875 0  0.75 0.46875 0  0.78125 0.46875 0  0.8125 0.46875 0  0.84375 0.46875 0  0.875 0.46875 0  0.90625 0.46875 0  0.9375 0.46875 0  0.96875 0.46875 0  1 0.46875 0  0 0.5 0  0.03125 0.5 0  0.0625 0.5 0  0.09375 0.5 0  0.125 0.5 0  0.15625 0.5 0  0.1875 0.5 0  0.21875 0.5 0  0.25 0.5 0  0.28125 0.5 0  0.3125 0.5 0  0.34375 0.5 0  0.375 0.5 0  0.40625 0.5 0  0.4375 0.5 0  0.46875 0.5 0  0.5 0.5 0  0.53125 0.5 0  0.5625 0.5 0  0.59375 0.5 0  0.625 0.5 0  0.65625 0.5 0  0.6875 0.5 0  0.71875 0.5 0  0.75 0.5 0  0.78125 0.5 0  0.8125 0.5 0  0.84375 0.5 0  0.875 0.5 0  0.90625 0.5 0  0.9375 0.5 0  0.96875 0.5 0  1 0.5 0  0 0.53125 0  0.03125 0.53125 0  0.0625 0.53125 0  0.09375 0.53125 0  0.125 0.53125 0  0.15625 0.53125 0  0.1875 0.53125 0  0.21875 0.53125 0  0.25 0.53125 0  0.28125 0.53125 0  0.3125 0.53125 0  0.34375 0.53125 0  0.375 0.53125 0  0.40625 0.53125 0  0.4375 0.53125 0  0.46875 0.53125 0  0.5 0.53125 0  0.53125 0.53125 0  0.5625 0.53125 0  0.59375 0.53125 0  0.625 0.53125 0  0.65625 0.53125 0  0.6875 0.53125 0  0.71875 0.53125 0  0.75 0.53125 0  0.78125 0.531
[...]
<PointData  Scalars="f_934"> 
<DataArray  type="Float64"  Name="f_934"  format="ascii">-5.0590050378936358e-01  -6.6984979750108964e-01  -9.4630568457021691e-01  -1.3248178944551605e+00  -1.7619816470131908e+00  -2.2448259421133585e+00  -2.7702010493744686e+00  -3.3117536247177668e+00  -3.8635393067213610e+00  -4.4252909465312751e+00  -4.9815002078783781e+00  -5.5260001073780955e+00  -6.0565314387881619e+00  -6.5646087525630072e+00  -7.0347141835637625e+00  -7.4710139479321818e+00  -7.8642188003237266e+00  -8.1948483488157144e+00  -8.4726196619453056e+00  -8.6957144027114897e+00  -8.8512675491157466e+00  -8.9632586085945256e+00  -9.0309998800942495e+00  -9.0713334565480963e+00  -9.1256166306508568e+00  -9.2424057112669988e+00  -9.4367052956050479e+00  -9.8979791758680591e+00  -1.0345104448278134e+01  -1.1721129638622305e+01  -1.1796278826481482e+01  -1.4760443242343030e+01  -1.3402303659632308e+01  -6.5154728783431448e-01  -8.2024837542400042e-01  -1.0876330386123187e+00  -1.4385451231396869e+00  -1.8447007633053780e+00  -2.2997263141629785e+00  -2.7945629178616871e+00  -3.3097906648579736e+00  -3.8416900606544671e+00  -4.3849630710578431e+00  -4.9264836442287452e+00  -5.4631193042220145e+00  -5.9915359004445827e+00  -6.5034363533980581e+00  -6.9828241130276689e+00  -7.4371926691539771e+00  -7.8580457509183104e+00  -8.2250588578132326e+00  -8.5520030590545613e+00  -8.8370804051629861e+00  -9.0661059920813223e+00  -9.2598075310616483e+00  -9.4231697251549136e+00  -9.5728576320624050e+00  -9.7382897118623735e+00  -9.9556793886333352e+00  -1.0244010394380284e+01  -1.0688980469092694e+01  -1.1223755381034298e+01  -1.2232808798454993e+01  -1.2407566599483038e+01  -1.5047376146715044e+01  -1.3642435328485597e+01  -7.2904225400774791e-01  -9.1309100164842505e-01  -1.1842587310085257e+00  -1.5269836116057534e+00  -1.9157594297169258e+00  -2.3508179064129036e+00  -2.8245478525345500e+00  -3.3205512162296742e+00  -3.8360874125138498e+00  -4.3648407017226054e+00  -4.8963761820525935e+00  -5.4288310408557727e+00  -5.9578634958517833e+00  -6.4759298692442853e+00  -6.9676611588636757e+00  -7.4428109495761712e+00  -7.8933160439863990e+00  -8.2971371740194648e+00  -8.6708177297578750e+00  -9.0131914133643587e+00  -9.3056785870622019e+00  -9.5685340671103454e+00  -9.8103835192030395e+00  -1.0043244857464110e+01  -1.0284758054293388e+01  -1.0572821009245953e+01  -1.0899321925931325e+01  -1.1351035452406688e+01  -1.1856392070827940e+01  -1.2852549703838132e+01  -1.2926902623822723e+01  -1.5991900147450909e+01  -1.4385456143414094e+01  -7.5229436138964534e-01  -9.6890777897496949e-01  -1.2540972721165717e+00  -1.5993811591849647e+00  -1.9790836334191670e+00  -2.4014146376264840e+00  -2.8606072833782838e+00  -3.3434920098665595e+00  -3.8464630452898847e+00  -4.3640624976616946e+00  -4.8902928896250097e+00  -5.4211782094088887e+00  -5.9522615327158439e+00  -6.4778246196876612e+00  -6.9849256165510747e+00  -7.4813919334997765e+00  -7.9605782541632104e+00  -8.4006158550573709e+00  -8.8168046636917889e+00  -9.2077282769728530e+00  -9.5539460974190114e+00  -9.8734972279127042e+00  -1.0174440226011949e+01  -1.0463396392266691e+01  -1.0752330830272497e+01  -1.1079551246596566e+01  -1.1431001914480870e+01  -1.1879337637668872e+01  -1.2391954271459454e+01  -1.3409203761311431e+01  -1.3550377575309451e+01  -1.6857850052379913e+01  -1.4826415406141574e+01  -7.5265853440091401e-01  -1.0042485770578742e+00  -1.3085455656547129e+00  -1.6628607571969509e+00  -2.0390839220490578e+00  -2.4541872790510570e+00  -2.9043233175458374e+00  -3.3785419547896907e+00  -3.8724373448998461e+00  -4.3825159761920638e+00  -4.9063171833528187e+00  -5.4369649368694759e+00  -5.9715580698145967e+00  -6.5063583596057208e+00  -7.0286932083723057e+00  -7.5452310541197463e+00  -8.0520402971313683e+00  -8.5239076019097837e+00  -8.9762609747063209e+00  -9.4080692710830665e+00  -9.7955353742952891e+00  -1.0156784622894767e+01  -1.0494467118899541e+01  -1.0813575864189140e+01  -1.1123984186361625e+01  -1.1464980387889581e+01  -1.1816835719020020e+01  -1.2251430902636278e+01  -1.2764602824896214e+01  -1.3816152807246958e+01  -1.3984868734118155e+01  -1.7426738418296019e+01  -1.5089804353673230e+01  -7.5705532200055181e-01  -1.0371260050531472e+00  -1.3599210124076817e+00  -1.7259780066607813e+00  -2.1021981302436288e+00  -2.5136924769609736e+00  -2.9582625215316121e+00  -3.4272849029917305e+00  -3.9151553865669637e+00  -4.4198098050241805e+00  -4.9429072910353842e+00  -5.4749546183183933e+00  -6.0137731808253623e+00  -6.5570164823111918e+00  -7.0931773145534045e+00  -7.6281530326778846e+00  -8.1589960017648551e+00  -8.6559972556867368e+00  -9.1369161269937322e+00  -9.5997345467858590e+00  -1.0013431167542882e+01  -1.0397884804934481e+01  -1.0747958047572062e+01  -1.1069701589042896e+01  -1.1372242663742194e+01  -1.1696401013631744e+01  -1.2019078134251700e+01  -1.2412974337506945e+01  -1.2899989644979398e+01  -1.3947992033031506e+01  -1.4113030330988449e+01  -1.7628710927424194e+01  -1.5106978672220489e+01  -7.7801053367023254e-01  -1.0818966871346345e+00  -1.4204255270569746e+00  -1.7967635749148205e+00  -2.1746824469748596e+00  -2.5846518680582773e+00  -3.0255020352338380e+00  -3.4920968930836560e+00  -3.9762161920459906e+00  -4.4765301248529656e+00  -5.0002500364438420e+00  -5.5345768591444635e+00  -6.0772246599825559e+00  -6.6268228786415655e+00  -7.1744948600110376e+00  -7.7243883886144751e+00  -8.2734137770711307e+00  -8.7881161654472422e+00  -9.2879023806523371e+00  -9.7685858908557925e+00  -1.0191446578853505e+01  -1.0577247867163733e+01  -1.0912422405958081e+01  -1.1205693841256165e+01  -1.1465633165383537e+01  -1.1737372437977173e+01  -1.1996021466065095e+01  -1.2313737987224718e+01  -1.2731414497611189e+01  -1.3728810389427860e+01  -1.3874143655469389e+01  -1.7410374408849407e+01  -1.4765130398892284e+01  -8.2808586850673560e-01  -1.1491793968167734e+00  -1.4987494038774520e+00  -1.8821936702814743e+00  -2.2621517130096520e+00  -2.6713828122927330e+00  -3.1094345318393510e+00  -3.5757732671680396e+00  -4.0575225590002066e+00  -4.5539707163531684e+00  -5.0791484379868432e+00  -5.6156924009026623e+00  -6.1606502989420164e+00  -6.7135028089656181e+00  -7.2692687292374085e+00  -7.8288024997040830e+00  -8.3882637652264105e+00  -8.9117466464925030e+00  -9.4184692901328280e+00  -9.9010910715596285e+00  -1.0313107634401401e+01  -1.0675029875434440e+01  -1.0965008876513707e+01  -1.1194690793571128e+01  -1.1373563524600170e+01  -1.1551272939015329e+01  -1.1706280767369234e+01  -1.1911953438719271e+01  -1.2221205096550934e+01  -1.3133463548394040e+01  -1.3229792374877649e+01  -1.6719773038180964e+01  -1.3974870781822819e+01  -9.1632192515330058e-01  -1.2461658024073665e+00  -1.6012363638432225e+00  -1.9880193779173798e+00  -2.3691241232447102e+00  -2.7778477094661342e+00  -3.2134872895323343e+00  -3.6810341963354238e+00  -4.1612567900659041e+00  -4.6539094072082738e+00  -5.1807064441921158e+00  -5.7185756810185904e+00  -6.2636141233374936e+00  -6.8156800109855942e+00  -7.3746252922860114e+00  -7.9367823654080798e+00  -8.4971799949594740e+00  -9.0182074156936345e+00  -9.5176780325521850e+00  -9.9840823215184500e+00  -1.0362701613784942e+01  -1.0672467118621562e+01  -1.0883854461002191e+01  -1.1011874715202175e+01  -1.1068713697659796e+01  -1.1101651576853017e+01  -1.1109935575413322e+01  -1.1186864324203855e+01  -1.1357991467459833e+01  -1.2143078139010742e+01  -1.2111400216576421e+01  -1.5458586192836890e+01  -1.2659448703101717e+01  -1.0458167955236704e+00  -1.3780426934730354e+00  -1.7352055990819248e+00  -2.1177485365906139e+00  -2.4995993243416699e+00  -2.9074961486133359e+00  -3.3407647726417888e+00  -3.8104890021393860e+00  -4.2895706620877228e+00  -4.7781920769389536e+00  -5.3062943276084900e+00  -5.8440013284768657e+00  -6.3860645274847458e+00  -6.9323741272199539e+00  -7.4883575832510214e+00  -8.0445520466856948e+00  -8.5945416513943691e+00  -9.0996578594783060e+00  -9.5752611866888397e+00  -1.0004961408950042e+01  -1.0324572650241230e+01  -1.0552051236505767e+01  -1.0649508018500565e+01  -1.0636648970558262e+01  -1.0528697908899241e+01  -1.0372537121937750e+01  -1.0199818864730611e+01  -1.0122791295128145e+01  -1.0104004607631190e+01  -1.0716609870315033e+01  -1.0551468429355261e+01  -1.3680868273232178e+01  -1.0852618983313100e+01  -1.2129241808517053e+00  -1.5454912554670641e+00  -1.9004312967841992e+00  -2.2772433143001205e+00  -2.6567189364968549e+00  -3.0626944188805090e+00  -3.4937355539630222e+00  -3.9662504774104712e+00  -4.4442470333794617e+00  -4.9282920650967430e+00  -5.4569379406361254e+00  -5.9925999922441617e+00  -6.5281677309012771e+00  -7.0629477763220434e+00  -7.6083760432124672e+00  -8.1484272067775194e+00  -8.6745637380645118e+00  -9.1472442531086102e+00  -9.5799739162922020e+00  -9.9512111966477992e+00  -1.0184464896593235e+01  -1.0299459429479203e+01  -1.0245207297974801e+01  -1.0053575149335932e+01  -9.7412178378963628e+00  -9.3653994591932097e+00  -8.9741559245053271e+00  -8.6922536694570862e+00  -8.4504512308969986e+00  -8.8656948694799738e+00  -8.5601199786211950e+00  -1.1413511870239386e+01  -8.5847907103979786e+00  -1.4204500893462662e+00  -1.7517341325390523e+00  -2.0991971144219006e+00  -2.4635469997869275e+00  -2.8394633248937429e+00  -3.2450856535411292e+00  -3.6743516890289030e+00  -4.1493778020978516e+00  -4.6261642330840118e+00  -5.1048315748914401e+00  -5.6330345366246029e+00  -6.1644869661259545e+00  -6.6896013632374434e+00  -7.2062455921749251e+00  -7.7317514822428146e+00  -8.2444145571477971e+00  -8.7321048100109717e+00  -9.1530068522742525e+00  -9.5214974688968361e+00  -9.8094062275965381e+00  -9.9293222336240703e+00  -9.9017909147330467e+00  -9.6583870910326066e+00  -9.2531155902677611e+00  -8.7033047154961807e+00  -8.0808848615642557e+00  -7.4371094109631866e+00  -6.9073551629517631e+00  -6.4283675383327026e+00  -6.6099632847781855e+00  -6.1515006005630415e+00  -8.6653071930774068e+00  -5.8608240814439663e+00  -1.6776034764316723e+00  -1.9909951651817765e+00  -2.3241468966498977e+00  -2.6762020960873927e+00  -3.0539103070443239e+00  -3.4608080026646890e+00  -3.8812492752613768e+00  -4.3593907868708675e+00  -4.8346772480794060e+00  -5.3068731814223371e+00  -5.8330387537263393e+00  -6.3574769170562888e+00  -6.8684358056786108e+00  -7.3605349659857273e+00  -7.8546587468851206e+00  -8.3285204486443032e+00  -8.7624564966325877e+00  -9.1083508743633210e+00  -9.3822018237874083e+00  -9.5599404875847043e+00  -9.5432839916163061e+00  -9.3423940399464787e+00  -8.8808925830191416e+00  -8.2346628117111447e+00  -7.4241308972544111e+00  -6.5317792239209291e+00  -5.6105195050284067e+00  -4.8249864127124251e+00  -4.1008687016843428e+00  -4.0213515891139711e+00  -3.3804917572315460e+00  -5.4641104329306458e+00  -2.6975602267335077e+00  -1.9729922469478294e+00  -2.2577839871807961e+00  -2.5725505049704460e+00  -2.9172644393874045e+00  -3.2899516865340050e+00  -3.6921396484570081e+00  -4.1154569595873358e+00  -4.5931443174997559e+00  -5.0674833993396975e+00  -5.5314784037460631e+00  -6.0531555644975690e+00  -6.5673687836817356e+00  -7.0618786542981669e+00  -7.5241286751536816e+00  -7.9689812611885795e+00  -8.3854448128377417e+00  -8.7576870671459055e+00  -9.0112375886661606e+00  -9.1561423383323088e+00  -9.1703424567835423e+00  -9.0102400456223446e+00  -8.6034708562603388e+00  -7.9150622898401952e+00  -7.0012598514499587e+00  -5.9208638206207569e+00  -4.7413583574574716e+00  -3.5367971980887116e+00  -2.4964281558455568e+00  -1.5313092770299428e+00  -1.1606547827439710e+00  -2.7832668490509249e-01  -1.8975921765357999e+00  7.9020002918221843e-01  -2.2821971581302436e+00  -2.5439274245135679e+00  -2.8461417821267276e+00  -3.1812757512948777e+00  -3.5544044475780412e+00  -3.9500562954011778e+00  -4.3626779946101140e+00  -4.8463456376686533e+00  -5.3193642233342819e+00  -5.7742233852089839e+00  -6.2863491475123814e+00  -6.7827061358481124e+00  -7.2540561411953064e+00  -7.6910115466067976e+00  -8.0753260863541509e+00  -8.4090483203610500e+00  -8.6880486575271672e+00  -8.8559452521147044e+00  -8.8407840485793638e+00  -8.6630742928970506e+00  -8.2988960812223134e+00  -7.6886409249524528e+00  -6.7560540999455831e+00  -5.5737848355188131e+00  -4.2007559423418348e+00  -2.7437693448031371e+00  -1.2691119463866263e+00  2.0457594752709252e-02  1.2362694382656731e+00  1.8748549959903487e+00  3.0204221353200396e+00  1.8769091542068370e+00  4.4754619821397199e+00  -2.6060504837427239e+00  -2.8479061544980473e+00  -3.1344895333212897e+00  -3.4601223696337202e+00  -3.8234409107708096e+00  -4.2196380267205660e+00  -4.6314460436799214e+00  -5.1103994507802799e+00  -5.5838512186722795e+00  -6.0297413154924939e+00  -6.5227474800522414e+00  -6.9949735988231181e+00  -7.4315474864006283e+00  -7.8343388599360448e+00  -8.1616200526301146e+00  -8.3958921243929190e+00  -8.5375631031510366e+00  -8.5906652140941393e+00  -8.4297986094190520e+00  -8.0360921044366265e+00  -7.4194065136860168e+00  -6.5740278353485859e+00  -5.4064721492434940e+00  -3.9456433129467401e+00  -2.2983408651586545e+00  -5.8197544327862238e-01  1.1368577481836863e+00  2.6741492099143978e+00  4.1359699779962149e+00  5.0211147806061689e+00  6.4173689675739212e+00  5.7421646802791146e+00  8.2582564129279863e+00  -2.9637645392984253e+00  -3.1790883825488851e+00  -3.4407659647209972e+00  -3.7498509301661147e+00  -4.1142093072855355e+00  -4.5004114251315874e+00  -4.8994182277414060e+00  -5.3720082987746114e+00  -5.8436826723634558e+00  -6.2862001147013054e+00  -6.7532010221099403e+00  -7.1930259081486545e+00  -7.5889509938776332e+00  -7.9270978821460174e+00  -8.1933405992225410e+00  -8.3262753482795731e+00  -8.3265911975772013e+00  -8.1920947554858099e+00  -7.8728188680403415e+00  -7.2602500507482901e+00  -6.3831257423381071e+00  -5.2550466602974444e+00  -3.8508218327835722e+00  -2.1332657804629704e+00  -2.3817049641879451e-01  1.7051361028106746e+00  3.6341152276452320e+00  5.3850515045443013e+00  7.0799946830047169e+00  8.2040895221646544e+00  9.8586848272720697e+00  9.6366435425684323e+00  1.2136440905156903e+01  -3.3290125079320925e+00  -3.5126983160703360e+00  -3.7543213513744571e+00  -4.0504513881243076e+00  -4.3974999801143673e+00  -4.7841402153343102e+00  -5.1721086647386745e+00  -5.6188778422091836e+00  -6.0778708458678885e+00  -6.5250612207628889e+00  -6.9560579586964018e+00  -7.3578161018681909e+00  -7.7010896338761627e+00  -7.9692179484549746e+00  -8.1437949393235574e+00  -8.1673184470793263e+00  -8.0190475102132766e+00  -7.6850402836374592e+00  -7.1528374657597018e+00  -6.3132849581242425e+00  -5.1725551800406357e+00  -3.7514111322001571e+00  -2.0902845566996113e+00  -1.4821696762501357e-01  1.9552964123390404e+00  4.0869550023986818e+00  6.1780949390017055e+00  8.0946466011672857e+00  9.9933107314999141e+00  1.1337862731184059e+01  1.3271906535464492e+01  1.3429952329168103e+01  1.5933618766160125e+01  -3.6875712253068245e+00  -3.8438351463934852e+00  -4.0605842538470283e+00  -4.3327773135484726e+00  -4.6658190942491578e+00  -5.0367866660856784e+00  -5.4232133281341222e+00  -5.8365557945241351e+00  -6.2825993896271717e+00  -6.7128446669190147e+00  -7.1133959875822672e+00  -7.4637880251988928e+00  -7.7459368643746984e+00  -7.9308469796260992e+00  -8.0029937961135751e+00  -7.9084266450536260e+00  -7.5916460856908738e+00  -7.0476195823727288e+00  -6.2713661270902437e+00  -5.2025267958011732e+00  -3.7824142127868186e+00  -2.0738086820889050e+00  -1.3870069439772403e-01  1.9888108052704969e+00  4.2687886502826409e+00  6.5347328983369151e+00  8.7350065997917969e+00  1.0744598924190555e+01  1.2811140482387762e+01  1.4330944214059596e+01  1.6549110192991904e+01  1.6999141407317520e+01  1.9610627472342685e+01  -4.0225571257149122e+00  -4.1527545574102875e+00  -4.3586513270920060e+00  -4.6132871677239073e+00  -4.9148557216732831e+00  -5.2770440417816635e+00  -5.6623610094036394e+00  -6.0427234798957361e+00  -6.4364675207948094e+00  -6.8359702564262408e+00  -7.1948173722851179e+00  -7.4941200104056040e+00  -7.7008857370050610e+00  -7.7917755400490867e+00  -7.7341431193773467e+00  -7.5082466340809439e+00  -7.0355301225633378e+00  -6.2709922794657249e+00  -5.2214529797641429e+00  -3.8943853339712238e+00  -2.2320347619162426e+00  -2.3761965691195330e-01  1.9741635084930778e+00  4.2971709304276660e+00  6.6797224223039624e+00  9.0336026809668635e+00  1.1287059561840730e+01  1.3325786478020726e+01  1.5481129412300310e+01  1.7114340840954373e+01  1.9614072458621443e+01  2.0248676878097637e+01  2.3104394237600797e+01  -4.2873037991521539e+00  -4.4128361072144404e+00  -4.6231790206070515e+00  -4.8826922470670393e+00  -5.1633449301012035e+00  -5.4786745304552849e+00  -5.8440336901370022e+00  -6.2114935145544736e+00  -6.5532871902520569e+00  -6.8789695484195610e+00  -7.1837821197833920e+00  -7.4144708336113201e+00  -7.5449791992352200e+00  -7.5302279365676803e+00  -7.3412940295266313e+00  -6.9397085739124833e+00  -6.3011686742596176e+00  -5.3453913123266048e+00  -4.0371976436306465e+00  -2.4032197218048275e+00  -4.8124308742354760e-01  1.7394054791037667e+00  4.2015535909094490e+00  6.7392346240511847e+00  9.2255293980737125e+00  1.1583017249133592e+01  1.3836993240203981e+01  1.5842638316193979e+01  1.8016556774782817e+01  1.9651292909466040e+01  2.2407804741345423e+01  2.3072069347012960e+01  2.6357486085773168e+01  -4.5205165137618391e+00  -4.6556855104227495e+00  -4.8532218739048982e+00  -5.1163290289557590e+00  -5.4006880954508780e+00  -5.6754510628350543e+00  -5.9676065696963425e+00  -6.2984650396487156e+00  -6.6079472590174104e+00  -6.8627953542901912e+00  -7.0658057085673605e+00  -7.2159538467181132e+00  -7.2515168294500443e+00  -7.1322040738931110e+00  -6.8009875648708888e+00  -6.2309019925518765e+00  -5.3840574709223148e+00  -4.2340635161711155e+00  -2.7082807297401450e+00  -7.9813804540830402e-01  1.4273317651321555e+00  3.8852143201922975e+00  6.5313902380773561e+00  9.2562187062173038e+00  1.1869082925742315e+01  1.4233133070735585e+01  1.6402611981395303e+01  1.8317574738119376e+01  2.0446957483384448e+01  2.1982706467572633e+01  2.4936653699256169e+01  2.5434115685109447e+01  2.9339709672705066e+01  -4.7699508799650312e+00  -4.9305218809066034e+00  -5.1030009215727565e+00  -5.3220823315671710e+00  -5.5927158824874343e+00  -5.8513652726273344e+00  -6.0752741604494611e+00  -6.3093032181529720e+00  -6.5676122648789441e+00  -6.7642265263364276e+00  -6.8671986338693491e+00  -6.8876139860933616e+00  -6.8232448373450394e+00  -6.5787978670981566e+00  -6.1089330760270517e+00  -5.3632529147768864e+00  -4.3280132647533067e+00  -2.9499315124482575e+00  -1.2142273700350699e+00  9.2132214577989191e-01  3.4082876634673172e+00  6.1377411895647747e+00  8.9792061410585031e+00  1.1835785409956845e+01  1.4563701329228742e+01  1.6961964284856780e+01  1.9055192277007649e+01  2.0787910467476763e+01  2.2793121507222406e+01  2.4124089381914075e+01  2.7248876665182209e+01  2.7339966439529540e+01  3.2147701957016537e+01  -4.9975407207001226e+00  -5.1810877912327982e+00  -5.3771915012465152e+00  -5.5484948892588557e+00  -5.7595602567683954e+00  -5.9789065442594627e+00  -6.1622199368174257e+00  -6.2937773177628316e+00  -6.4478560441642108e+00  -6.5708774158497318e+00  -6.5857782201366959e+00  -6.4690856569941912e+00  -6.2629973425409986e+00  -5.8952793270240731e+00  -5.2673271078641273e+00  -4.3489165348560253e+00  -3.1270528757791078e+00  -1.5561528276339280e+00  4.1545782122522312e-01  2.7569736785658101e+00  5.4523655153272497e+00  8.4041229093753618e+00  1.1481645327969630e+01  1.4485958368450449e+01  1.7307597159636085e+01  1.9753570665179321e+01  2.1816537994540976e+01  2.3364498110861600e+01  2.5164321154272187e+01  2.6134950133092463e+01  2.9376281319694218e+01  2.8812157843759813e+01  3.4759216074336294e+01  -5.2064094032737902e+00  -5.4349957278419945e+00  -5.6386123828964045e+00  -5.8045434841495736e+00  -5.9411826004003689e+00  -6.0842123434284998e+00  -6.2018946718160173e+00  -6.2670940339448551e+00  -6.2964420442203997