<?xml version="1.0"?>
<VTKFile type="UnstructuredGrid"  version="0.1"  >
<UnstructuredGrid>
<Piece  NumberOfPoints="729" NumberOfCells="3072">
<Points>
<DataArray  type="Float64"  NumberOfComponents="3"  format="ascii">0 0 0  0.125 0 0  0.25 0 0  0.375 0 0  0.5 0 0  0.625 0 0  0.75 0 0  0.875 0 0  1 0 0  0 0.125 0  0.125 0.125 0  0.25 0.125 0  0.375 0.125 0  0.5 0.125 0  0.625 0.125 0  0.75 0.125 0  0.875 0.125 0  1 0.125 0  0 0.25 0  0.125 0.25 0  0.25 0.25 0  0.375 0.25 0  0.5 0.25 0  0.625 0.25 0  0.75 0.25 0  0.875 0.25 0  1 0.25 0  0 0.375 0  0.125 0.375 0  0.25 0.375 0  0.375 0.375 0  0.5 0.375 0  0.625 0.375 0  0.75 0.375 0  0.875 0.375 0  1 0.375 0  0 0.5 0  0.125 0.5 0  0.25 0.5 0  0.375 0.5 0  0.5 0.5 0  0.625 0.5 0  0.75 0.5 0  0.875 0.5 0  1 0.5 0  0 0.625 0  0.125 0.625 0  0.25 0.625 0  0.375 0.625 0  0.5 0.625 0  0.625 0.625 0  0.75 0.625 0  0.875 0.625 0  1 0.625 0  0 0.75 0  0.125 0.75 0  0.25 0.75 0  0.375 0.75 0  0.5 0.75 0  0.625 0.75 0  0.75 0.75 0  0.875 0.75 0  1 0.75 0  0 0.875 0  0.125 0.875 0  0.25 0.875 0  0.375 0.875 0  0.5 0.875 0  0.625 0.875 0  0.75 0.875 0  0.875 0.875 0  1 0.875 0  0 1 0  0.125 1 0  0.25 1 0  0.375 1 0  0.5 1 0  0.625 1 0  0.75 1 0  0.875 1 0  1 1 0  0 0 0.125  0.125 0 0.125  0.25 0 0.125  0.375 0 0.125  0.5 0 0.125  0.625 0 0.125  0.75 0 0.125  0.875 0 0.125  1 0 0.125  0 0.125 0.125  0.125 0.125 0.125  0.25 0.125 0.125  0.375 0.125 0.125  0.5 0.125 0.125  0.625 0.125 0.125  0.75 0.125 0.125  0.875 0.125 0.125  1 0.125 0.125  0 0.25 0.125  0.125 0.25 0.125  0.25 0.25 0.125  0.375 0.25 0.125  0.5 0.25 0.125  0.625 0.25 0.125  0.75 0.25 0.125  0.875 0.25 0.125  1 0.25 0.125  0 0.375 0.125  0.125 0.375 0.125  0.25 0.375 0.125  0.375 0.375 0.125  0.5 0.375 0.125  0.625 0.375 0.125  0.75 0.375 0.125  0.875 0.375 0.125  1 0.375 0.125  0 0.5 0.125  0.125 0.5 0.125  0.25 0.5 0.125  0.375 0.5 0.125  0.5 0.5 0.125  0.625 0.5 0.125  0.75 0.5 0.125  0.875 0.5 0.125  1 0.5 0.125  0 0.625 0.125  0.125 0.625 0.125  0.25 0.625 0.125  0.375 0.625 0.125  0.5 0.625 0.125  0.625 0.625 0.125  0.75 0.625 0.125  0.875 0.625 0.125  1 0.625 0.125  0 0.75 0.125  0.125 0.75 0.125  0.25 0.75 0.125  0.375 0.75 0.125  0.5 0.75 0.125  0.625 0.75 0.125  0.75 0.75 0.125  0.875 0.75 0.125  1 0.75 0.125  0 0.875 0.125  0.125 0.875 0.125  0.25 0.875 0.125  0.375 0.875 0.125  0.5 0.875 0.125  0.625 0.875 0.125  0.75 0.875 0.125  0.875 0.875 0.125  1 0.875 0.125  0 1 0.125  0.125 1 0.125  0.25 1 0.125  0.375 1 0.125  0.5 1 0.125  0.625 1 0.125  0.75 1 0.125  0.875 1 0.125  1 1 0.125  0 0 0.25  0.125 0 0.25  0.25 0 0.25  0.375 0 0.25  0.5 0 0.25  0.625 0 0.25  0.75 0 0.25  0.875 0 0.25  1 0 0.25  0 0.125 0.25  0.125 0.125 0.25  0.25 0.125 0.25  0.375 0.125 0.25  0.5 0.125 0.25  0.625 0.125 0.25  0.75 0.125 0.25  0.875 0.125 0.25  1 0.125 0.25  0 0.25 0.25  0.125 0.25 0.25  0.25 0.25 0.25  0.375 0.25 0.25  0.5 0.25 0.25  0.625 0.25 0.25  0.75 0.25 0.25  0.875 0.25 0.25  1 0.25 0.25  0 0.375 0.25  0.125 0.375 0.25  0.25 0.375 0.25  0.375 0.375 0.25  0.5 0.375 0.25  0.625 0.375 0.25  0.75 0.375 0.25  0.875 0.375 0.25  1 0.375 0.25  0 0.5 0.25  0.125 0.5 0.25  0.25 0.5 0.25  0.375 0.5 0.25  0.5 0.5 0.25  0.625 0.5 0.25  0.75 0.5 0.25  0.875 0.5 0.25  1 0.5 0.25  0 0.625 0.25  0.125 0.625 0.25  0.25 0.625 0.25  0.375 0.625 0.25  0.5 0.625 0.25  0.625 0.625 0.25  0.75 0.625 0.25  0.875 0.625 0.25  1 0.625 0.25  0 0.75 0.25  0.125 0.75 0.25  0.25 0.75 0.25  0.375 0.75 0.25  0.5 0.75 0.25  0.625 0.75 0.25  0.75 0.75 0.25  0.875 0.75 0.25  1 0.75 0.25  0 0.875 0.25  0.125 0.875 0.25  0.25 0.875 0.25  0.375 0.875 0.25  0.5 0.875 0.25  0.625 0.875 0.25  0.75 0.875 0.25  0.875 0.875 0.25  1 0.875 0.25  0 1 0.25  0.125 1 0.25  0.25 1 0.25  0.375 1 0.25  0.5 1 0.25  0.625 1 0.25  0.75 1 0.25  0.875 1 0.25  1 1 0.25  0 0 0.375  0.125 0 0.375  0.25 0 0.375  0.375 0 0.375  0.5 0 0.375  0.625 0 0.375  0.75 0 0.375  0.875 0 0.375  1 0 0.375  0 0.125 0.375  0.125 0.125 0.375  0.25 0.125 0.375  0.375 0.125 0.375  0.5 0.125 0.375  0.625 0.125 0.375  0.75 0.125 0.375  0.875 0.125 0.375  1 0.125 0.375  0 0.25 0.375  0.125 0.25 0.375  0.25 0.25 0.375  0.375 0.25 0.375  0.5 0.25 0.375  0.625 0.25 0.375  0.75 0.25 0.375  0.875 0.25 0.375  1 0.25 0.375  0 0.375 0.375  0.125 0.375 0.375  0.25 0.375 0.375  0.375 0.375 0.375  0.5 0.375 0.375  0.625 0.375 0.375  0.75 0.375 0.375  0.875 0.375 0.375  1 0.375 0.375  0 0.5 0.375  0.125 0.5 0.375  0.25 0.5 0.375  0.375 0.5 0.375  0.5 0.5 0.375  0.625 0.5 0.375  0.75 0.5 0.375  0.875 0.5 0.375  1 0.5 0.375  0 0.625 0.375  0.125 0.625 0.375  0.25 0.625 0.375  0.375 0.625 0.375  0.5 0.625 0.375  0.625 0.625 0.375  0.75 0.625 0.375  0.875 0.625 0.375  1 0.625 0.375  0 0.75 0.375  0.125 0.75 0.375  0.25 0.75 0.375  0.375 0.75 0.375  0.5 0.75 0.375  0.625 0.75 0.375  0.75 0.75 0.375  0.875 0.75 0.375  1 0.75 0.375  0 0.875 0.375  0.125 0.875 0.375  0.25 0.875 0.375  0.375 0.875 0.375  0.5 0.875 0.375  0.625 0.875 0.375  0.75 0.875 0.375  0.875 0.875 0.375  1 0.875 0.375  0 1 0.375  0.125 1 0.375  0.25 1 0.375  0.375 1 0.375  0.5 1 0.375  0.625 1 0.375  0.75 1 0.375  0.875 1 0.375  1 1 0.375  0 0 0.5  0.125 0 0.5  0.25 0 0.5  0.375 0 0.5  0.5 0 0.5  0.625 0 0.5  0.75 0 0.5  0.875 0 0.5  1 0 0.5  0 0.125 0.5  0.125 0.125 0.5  0.25 0.125 0.5  0.375 0.125 0.5  0.5 0.125 0.5  0.625 0.125 0.5  0.75 0.125 0.5  0.875 0.125 0.5  1 0.125 0.5  0 0.25 0.5  0.125 0.25 0.5  0.25 0.25 0.5  0.375 0.25 0.5  0.5 0.25 0.5  0.625 0.25 0.5  0.75 0.25 0.5  0.875 0.25 0.5  1 0.25 0.5  0 0.375 0.5  0.125 0.375 0.5  0.25 0.375 0.5  0.375 0.375 0.5  0.5 0.375 0.5  0.625 0.375 0.5  0.75 0.375 0.5  0.875 0.375 0.5  1 0.375 0.5  0 0.5 0.5  0.125 0.5 0.5  0.25 0.5 0.5  0.375 0.5 0.5  0.5 0.5 0.5  0.625 0.5 0.5  0.75 0.5 0.5  0.875 0.5 0.5  1 0.5 0.5  0 0.625 0.5  0.125 0.625 0.5  0.25 0.625 0.5  0.375 0.625 0.5  0.5 0.625 0.5  0.625 0.625 0.5  0.75 0.625 0.5  0.875 0.625 0.5  1 0.625 0.5  0 0.75 0.5  0.125 0.75 0.5  0.25 0.75 0.5  0.375 0.75 0.5  0.5 0.75 0.5  0.625 0.75 0.5  0.75 0.75 0.5  0.875 0.75 0.5  1 0.75 0.5  0 0.875 0.5  0.125 0.875 0.5  0.25 0.875 0.5  0.375 0.875 0.5  0.5 0.875 0.5  0.625 0.875 0.5  0.75 0.875 0.5  0.875 0.875 0.5  1 0.875 0.5  0 1 0.5  0.125 1 0.5  0.25 1 0.5  0.375 1 0.5  0.5 1 0.5  0.625 1 0.5  0.75 1 0.5  0.875 1 0.5  1 1 0.5  0 0 0.625  0.125 0 0.625  0.25 0 0.625  0.375 0 0.625  0.5 0 0.625  0.625 0 0.625  0.75 0 0.625  0.875 0 0.625  1 0 0.625  0 0.125 0.625  0.125 0.125 0.625  0.25 0.125 0.625  0.375 0.125 0.625  0.5 0.125 0.625  0.625 0.125 0.625  0.75 0.125 0.625  0.875 0.125 0.625  1 0.125 0.625  0 0.25 0.625  0.125 0.25 0.625  0.25 0.25 0.625  0.375 0.25 0.625  0.5 0.25 0.625  0.625 0.25 0.625  0.75 0.25 0.625  0.875 0.25 0.625  1 0.25 0.625  0 0.375 0.625  0.125 0.375 0.625  0.25 0.375 0.625  0.375 0.375 0.625  0.5 0.375 0.625  0.625 0.375 0.625  0.75 0.375 0.625  0.875 0.375 0.625  1 0.375 0.625  0 0.5 0.625  0.125 0.5 0.625  0.25 0.5 0.625  0.375 0.5 0.625  0.5 0.5 0.625  0.625 0.5 0.625  0.75 0.5 0.625  0.875 0.5 0.625  1 0.5 0.625  0 0.625 0.625  0.125 0.625 0.625  0.25 0.625 0.625  0.375 0.625 0.625  0.5 0.625 0.625  0.625 0.625 0.625  0.75 0.625 0.625  0.875 0.625 0.625  1 0.625 0.625  0 0.75 0.625  0.125 0.75 0.625  0.25 0.75 0.625  0.375 0.75 0.625  0.5 0.75 0.625  0.625 0.75 0.625  0.75 0.75 0.625  0.875 0.75 0.625  1 0.75 0.625  0 0.875 0.625  0.125 0.875 0.625  0.25 0.875 0.625  0.375 0.875 0.625  0.5 0.875 0.625  0.625 0.875 0.625  0.75 0.875 0.625  0.875 0.875 0.625  1 0.875 0.625  0 1 0.625  0.125 1 0.625  0.25 1 0.625  0.375 1 0.625  0.5 1 0.625  0.625 1 0.625  0.75 1 0.625  0.875 1 0.625  1 1 0.625  0 0 0.75  0.125 0 0.75  0.25 0 0.75  0.375 0 0.75  0.5 0 0.75  0.625 0 0.75  0.75 0 0.75  0.875 0 0.75  1 0 0.75  0 0.125 0.75  0.125 0.125 0.75  0.25 0.125 0.75  0.375 0.125 0.75  0.5 0.125 0.75  0.625 0.125 0.75  0.75 0.125 0.75  0.875 0.125 0.75  1 0.125 0.75  0 0.25 0.75  0.125 0.25 0.75  0.25 0.25 0.75  0.375 0.25 0.75  0.5 0.25 0.75  0.625 0.25 0.75  0.75 0.25 0.75  0.875 0.25 0.75  1 0.25 0.75  0 0.375 0.75  0.125 0.375 0.75  0.25 0.375 0.75  0.375 0.375 0.75  0.5 0.375 0.75  0.625 0.375 0.75  0.75 0.375 0.75  0.875 0.375 0.75  1 0.375 0.75  0 0.5 0.75  0.125 0.5 0.75  0.25 0.5 0.75  0.375 0.5 0.75  0.5 0.5 0.75  0.625 0.5 0.75  0.75 0.5 0.75  0.875 0.5 0.75  1 0.5 0.75  0 0.625 0.75  0.125 0.625 0.75  0.25 0.625 0.75  0.375 0.625 0.75  0.5 0.625 0.75  0.625 0.625 0.75  0.75 0.625 0.75  0.875 0.625 0.75  1 0.625 0.75  0 0.75 0.75  0.125 0.75 0.75  0.25 0.75 0.75  0.375 0.75 0.75  0.5 0.75 0.75  0.625 0.75 0.75  0.75 0.75 0.75  0.875 0.75 0.75  1 0.75 0.75  0 0.875 0.75  0.125 0.875 0.75  0.25 0.875 0.75  0.375 0.875 0.75  0.5 0.875 0.75  0.625 0.875 0.75  0.75 0.875 0.75  0.875 0.875 0.75  1 0.875 0.75  0 1 0.75  0.125 1 0.75  0.25 1 0.75  0.375 1 0.75  0.5 1 0.75  0.625 1 0.75  0.75 1 0.75  0.875 1 0.75  1 1 0.75  0 0 0.875  0.125 0 0.875  0.25 0 0.875  0.375 0 0.875  0.5 0 0.875  0.625 0 0.875  0.75 0 0.875  0.875 0 0.875  1 0 0.875  0 0.125 0.875  0.125 0.125 0.875  0.25 0.125 0.875  0.375 0.125 0.875  0.5 0.125 0.875  0.625 0.125 0.875  0.75 0.125 0.875  0.875 0.125 0.875  1 0.125 0.875  0 0.25 0.875  0.125 0.25 0.875  0.25 0.25 0.875  0.375 0.25 0.875  0.5 0.25 0.875  0.625 0.25 0.875  0.75 0.25 0.875  0.875 0.25 0.875  1 0.25 0.875  0 0.375 0.875  0.125 0.375 0.875  0.25 0.375 0.875  0.375 0.375 0.875  0.5 0.375 0.875  0.625 0.375 0.875  0.75 0.375 0.875  0.875 0.375 0.875  1 0.375 0.875  0 0.5 0.875  0.125 0.5 0.875  0.25 0.5 0.875  0.375 0.5 0.875  0.5 0.5 0.875  0.625 0.5 0.875  0.75 0.5 0.875  0.875 0.5 0.875  1 0.5 0.875  0 0.625 0.875  0.125 0.625 0.875  0.25 0.625 0.875  0.375 0.625 0.875  0.5 0.625 0.875  0.625 0.625 0.875  0.75 0.625 0.875  0.875 0.625 0.875  1 0.625 0.875  0 0.75 0.875  0.125 0.75 0.875  0.25 0.75 0.875  0.375 0.75 0.875  0.5 0.75 0.875  0.625 0.75 0.875  0.75 0.75 0.875  0.875 0.75 0.875  1 0.75 0.875  0 0.875 0.875  0.125 0.875 0.875  0.25 0.875 0.875  0.375 0.875 0.875  0.5 0.875 0.875  0.625 0.875 0.875  0.75 0.875 0.875  0.
[...]
<PointData  Scalars="f_398"> 
<DataArray  type="Float64"  Name="f_398"  format="ascii">1.7694595150196770e+00  1.7071147333502383e+00  1.5720996922506179e+00  1.2765432075818199e+00  6.4939467897754177e-01  -4.5038501143209597e-01  -2.0760383450537638e+00  -4.0232922091504353e+00  -5.0616515574763330e+00  1.7204548473658203e+00  1.6387288252408394e+00  1.4101183275043965e+00  9.7248015711183489e-01  8.9411951220576880e-02  -1.4246475745423102e+00  -3.5622658964362648e+00  -5.7497474245198781e+00  -7.5948159412068730e+00  1.7650760496916484e+00  1.7066036884841755e+00  1.5366691748698031e+00  1.1515903359932351e+00  2.4318571779343889e-01  -1.4114743882111989e+00  -3.7257523290090702e+00  -5.9866285639660681e+00  -7.9071460841052073e+00  1.5955627427688437e+00  1.6388316747605325e+00  1.6962282717737134e+00  1.5527111987315845e+00  8.4496920270580222e-01  -6.9349870478353326e-01  -2.9824937500986666e+00  -5.3048457469022452e+00  -6.7558349430621867e+00  7.5248084570423623e-01  9.5327101238345735e-01  1.3012476000798192e+00  1.4220445125839927e+00  9.1780653631340892e-01  -5.1477218209098474e-01  -2.7715261666554580e+00  -5.1414101534325365e+00  -5.9251334911133933e+00  -1.1916285447793504e+00  -7.7811709704623544e-01  -2.0526659829811855e-01  -2.4766999923593325e-03  -5.5192588631785533e-01  -2.1555925820988526e+00  -4.5647182140660920e+00  -7.1181459063919190e+00  -6.8579212332059747e+00  -4.4546647552193743e+00  -3.8074015068501685e+00  -3.2824921261856446e+00  -3.4843523063605355e+00  -4.7442900566665820e+00  -7.3090326283950589e+00  -1.0559641019109636e+01  -1.3751077893250361e+01  -1.1442693103157685e+01  -8.8606073836792092e+00  -8.0785900705713871e+00  -8.2230623624109800e+00  -9.6728271392816261e+00  -1.2730891554769233e+01  -1.7405321881726451e+01  -2.2802463227368577e+01  -2.8007994651409859e+01  -2.4155721892984051e+01  -1.2257407986401210e+01  -1.2973794803825029e+01  -1.4252567325683318e+01  -1.7939004969273476e+01  -2.4280664175270598e+01  -3.3634543036470355e+01  -4.6185245430124930e+01  -5.8756848462553478e+01  -5.8392040452160302e+01  1.7650836207220160e+00  1.7693676696395690e+00  1.7513545601293448e+00  1.6092126278011256e+00  1.2097722248777707e+00  4.1883194420307213e-01  -8.7559290421318403e-01  -2.7561257257693854e+00  -4.5404732055958892e+00  1.7768812162228096e+00  1.7803791084265070e+00  1.7279796826581257e+00  1.5108701207527131e+00  9.5958691279573127e-01  -7.0533697715315480e-02  -1.6205671612630945e+00  -3.4998282101055298e+00  -5.4565567401661381e+00  1.8156511169013416e+00  1.8356284548110107e+00  1.8625796320605552e+00  1.7540424081023178e+00  1.2880728320936004e+00  3.0921809027968683e-01  -1.1779180012484765e+00  -2.9589084171272542e+00  -4.5395640335146448e+00  1.5456183476817897e+00  1.6107084674587551e+00  1.8067969985209089e+00  1.9141399466728837e+00  1.6631940223194821e+00  8.8066463444063814e-01  -4.2304179744124193e-01  -1.9745980666011462e+00  -3.1484576429286832e+00  4.9156321454905427e-01  6.6442228519738400e-01  1.0570710056815518e+00  1.3575496821466078e+00  1.2722586587675995e+00  6.2850441612404317e-01  -5.1525357850712750e-01  -1.7784858747263965e+00  -2.3132775832205827e+00  -1.8040741517256624e+00  -1.4197926071373133e+00  -9.0078619514159319e-01  -6.1499745262517491e-01  -8.2496686183732404e-01  -1.6497493290562888e+00  -2.8817822175123844e+00  -3.9240201454484263e+00  -3.4615674966532035e+00  -5.5529670880464410e+00  -4.8717811231535109e+00  -4.4718030719320847e+00  -4.6728996095250537e+00  -5.6584437771272613e+00  -7.4377816182383505e+00  -9.5055246460025700e+00  -1.0791987848584268e+01  -8.9364382166282237e+00  -1.0405806534530166e+01  -9.5532169283926081e+00  -9.7897148017581763e+00  -1.1256341922279097e+01  -1.4107566609684312e+01  -1.8258397708542251e+01  -2.2905428394252542e+01  -2.6108739477215856e+01  -2.3179347193497755e+01  -1.5310464068313218e+01  -1.5052302039277230e+01  -1.6700907214785783e+01  -2.0424287054589179e+01  -2.6556633968227100e+01  -3.5327180917680721e+01  -4.6212338896404617e+01  -5.6201052348816162e+01  -5.6079069670758884e+01  1.3231813159331001e+00  1.3421695273239522e+00  1.2990693560869180e+00  1.1045668269416034e+00  6.1075130981058612e-01  -3.7140741600051053e-01  -2.0971117981454821e+00  -4.8477654322491608e+00  -7.2732975071787305e+00  1.4726335158776587e+00  1.4990409528311088e+00  1.5169528355023456e+00  1.3760815032914415e+00  8.9704117760887625e-01  -1.0116590251912072e-01  -1.7784821634600390e+00  -4.1075985492860108e+00  -7.1721863394840577e+00  1.6557580247521491e+00  1.6781433080415256e+00  1.8461535340295385e+00  1.9435741459018874e+00  1.7361613030335947e+00  1.0274268570502731e+00  -3.3086497831948236e-01  -2.3852419152300000e+00  -5.2081268413626400e+00  1.4168331704162500e+00  1.4799915848717440e+00  1.8644839287789834e+00  2.2772087913237815e+00  2.4333166208507038e+00  2.1104841422942622e+00  1.1348152454263278e+00  -5.6442045350459846e-01  -3.1055283062185350e+00  2.2325380654501803e-01  4.3200163456944862e-01  1.0605599191965216e+00  1.7496104749691535e+00  2.1970757019806753e+00  2.1789933973873277e+00  1.5509293791377008e+00  2.7633968181149271e-01  -1.6096569805501932e+00  -2.4149340673988142e+00  -1.8933654814010583e+00  -1.0738428843044945e+00  -3.1252690969544039e-01  1.3735756377816610e-01  1.0446646366352663e-01  -4.1836196357953082e-01  -1.3132659235318060e+00  -2.1042640440463352e+00  -6.6843828071448756e+00  -5.7179222312665843e+00  -4.9222937550833423e+00  -4.5312533767124945e+00  -4.7032694851449746e+00  -5.5139865455907691e+00  -6.6697633352229140e+00  -7.6386830643600767e+00  -6.8383847091340311e+00  -1.2208327781593797e+01  -1.0930221876047092e+01  -1.0644488646543985e+01  -1.1370805015682510e+01  -1.3226482969353814e+01  -1.6194403133250592e+01  -1.9627311428854711e+01  -2.2205378944819138e+01  -2.0044676948070386e+01  -1.7972801731659381e+01  -1.7055424850065954e+01  -1.7987864353644774e+01  -2.0728671441266009e+01  -2.5649065986199236e+01  -3.3017705639259830e+01  -4.2394592620135953e+01  -5.1262045879083118e+01  -5.1471445125820729e+01  2.6257711607810474e-01  3.0816915769267306e-01  8.0008094511112349e-02  -4.6798987424840677e-01  -1.5046500264222717e+00  -3.2638457722860483e+00  -6.0462836170906682e+00  -1.0100751241984046e+01  -1.4036428944042676e+01  5.4657988881845632e-01  6.8256622437034475e-01  7.1808763854120761e-01  4.9485482567754557e-01  -1.8878017817737414e-01  -1.5509924837636413e+00  -3.8177091737440598e+00  -7.0345753443458854e+00  -1.1282753978783544e+01  9.3262465361395774e-01  1.0791753527779462e+00  1.4070126931425428e+00  1.6426812342758188e+00  1.5187781858768727e+00  7.8409299728201765e-01  -8.2514809667204281e-01  -3.5403031104308118e+00  -7.6522811105760145e+00  8.2599498402341665e-01  1.0221298253153570e+00  1.6819929916598610e+00  2.4196618791321285e+00  2.9019229246104175e+00  2.8279619812517849e+00  1.8584786370816158e+00  -3.5273595374211553e-01  -4.2732225172075822e+00  -3.8065012587628377e-01  -8.1325773894342923e-03  1.0098559996230048e+00  2.2033538270434301e+00  3.2067484534991664e+00  3.6940298229711530e+00  3.3068855519956992e+00  1.6705748687856188e+00  -1.6273803626753214e+00  -3.2139358047364301e+00  -2.4746722742297118e+00  -1.1334131785574737e+00  3.3312637098334452e-01  1.5913371198103681e+00  2.3436461310755128e+00  2.3171338291315893e+00  1.2456042094350233e+00  -9.5324541508535887e-01  -7.9116999032116500e+00  -6.6470434828246372e+00  -5.1566004226954014e+00  -3.8068553083953462e+00  -2.8510643930463493e+00  -2.5170271323723523e+00  -2.8377339098773717e+00  -3.7208942506968521e+00  -4.2867723064717405e+00  -1.4216779966117540e+01  -1.2470675925318432e+01  -1.1249689518745317e+01  -1.0678185974027670e+01  -1.0979857393689686e+01  -1.2311074477983293e+01  -1.4390511495893833e+01  -1.6434777587197011e+01  -1.5483627268949395e+01  -2.1142056646048609e+01  -1.9537242749759233e+01  -1.9171202823115877e+01  -2.0123303599317648e+01  -2.2862375204922852e+01  -2.7806789726754257e+01  -3.4909317030247600e+01  -4.2436109230299259e+01  -4.3464586823984348e+01  -1.4792152178365172e+00  -1.3227319549339462e+00  -1.8125673245923717e+00  -2.9526687125551874e+00  -4.9018603886189744e+00  -7.8876065497940946e+00  -1.2174327528539456e+01  -1.7890402507557575e+01  -2.3487188085617856e+01  -1.1038330371540133e+00  -7.1625833828224494e-01  -6.6848280304649133e-01  -1.1018805069446118e+00  -2.2173802660507134e+00  -4.2328792129351704e+00  -7.3882833248572179e+00  -1.1724377627026849e+01  -1.7244671783261449e+01  -5.4785677793440390e-01  -7.4532862580792614e-02  4.6604127854679245e-01  7.8575019726456707e-01  6.0657318725580778e-01  -3.4547797324262808e-01  -2.4071853731404254e+00  -5.9136492168026491e+00  -1.1419662870147640e+01  -5.2489283627203731e-01  4.2072711296261556e-02  1.0795280373815945e+00  2.1478298972407037e+00  2.8858527453305625e+00  2.9425520736583124e+00  1.8532917964444788e+00  -9.3083180575335600e-01  -6.3156974876270473e+00  -1.7360938166667175e+00  -9.4310807450129586e-01  6.1388276144035725e-01  2.3793976790374742e+00  3.9382703275151716e+00  4.8845767111309657e+00  4.6818424674335759e+00  2.6765851256380753e+00  -2.1163114859860626e+00  -4.7603163677885636e+00  -3.5536473150123795e+00  -1.4882014065022342e+00  8.2912805367841980e-01  2.9852129073155211e+00  4.5693236587013457e+00  5.0707492756470982e+00  3.8704008747719723e+00  1.7191366003337905e-01  -9.9668752745077001e+00  -8.1590555767455584e+00  -5.6936438969664067e+00  -3.1261902942640818e+00  -8.1451492268841630e-01  8.5616167070477101e-01  1.5309198949020431e+00  8.5164122851743329e-01  -1.1956276987129808e+00  -1.7326389226079410e+01  -1.4830115223848281e+01  -1.2278088824456695e+01  -9.9791081680367046e+00  -8.2769145227116034e+00  -7.5313933171581597e+00  -7.8680145161244734e+00  -9.1244166150365587e+00  -9.4498812047100671e+00  -2.5946488084182310e+01  -2.3333876753409793e+01  -2.1090733990856847e+01  -1.9597502513461265e+01  -1.9378168155724765e+01  -2.1044028388174276e+01  -2.5027467665468109e+01  -3.0668614087178153e+01  -3.2492281255286301e+01  -3.8325606150006921e+00  -3.4487280699562839e+00  -4.2416953604395271e+00  -6.1776990886327541e+00  -9.3497383262975600e+00  -1.3927485799965476e+01  -2.0121326148127771e+01  -2.7856480679346500e+01  -3.5242731607950290e+01  -3.4580308145509417e+00  -2.6477590716092418e+00  -2.5677259712168290e+00  -3.3170825989172794e+00  -5.0496109460799126e+00  -7.9418900046297267e+00  -1.2208420844900537e+01  -1.7823392458623633e+01  -2.4708184702103907e+01  -2.8515718837437056e+00  -1.8033095116103974e+00  -9.7516498529429940e-01  -6.2406214394956327e-01  -9.8510092875864563e-01  -2.3068068540222066e+00  -4.9468349532182856e+00  -9.2871734913892237e+00  -1.6195060476937410e+01  -2.8183861550847480e+00  -1.5648567529543342e+00  -2.9492026742435673e-02  1.3510526324468168e+00  2.2506188903272841e+00  2.3259358480470782e+00  1.0504701754037402e+00  -2.2729589952260820e+00  -9.0747954651677070e+00  -4.1740952767546098e+00  -2.5767975964492749e+00  -3.1369811040584494e-01  2.0399670962432959e+00  4.0934548263072115e+00  5.4267149691117531e+00  5.3954211161978574e+00  3.1190502001183456e+00  -3.0757365246581676e+00  -7.5642045050646214e+00  -5.4429005123972534e+00  -2.4322780355654321e+00  8.0105572349254839e-01  3.8489458549044935e+00  6.2566268909890743e+00  7.3416603708712156e+00  6.1724468578642870e+00  1.1045890464082184e+00  -1.3573546375544041e+01  -1.0686622929065233e+01  -6.9580571324151457e+00  -3.0264014297686312e+00  7.3399472305479385e-01  3.8546767210748882e+00  5.6996865381352571e+00  5.4612021887984703e+00  2.0822895818652274e+00  -2.2355532869814759e+01  -1.8570013856857607e+01  -1.4311890977603767e+01  -1.0019892501236647e+01  -6.0607040198903412e+00  -2.9312537413910107e+00  -1.1465523270571776e+00  -1.2085771094613538e+00  -2.6116708255379866e+00  -3.3448263315901983e+01  -2.9168925122066984e+01  -2.4569784220291911e+01  -2.0195828343966397e+01  -1.6508218924714299e+01  -1.4262082279162110e+01  -1.4352573877582785e+01  -1.7299289115637954e+01  -1.9499770970045038e+01  -6.6024130123142069e+00  -5.8928602801216403e+00  -7.0290183274234010e+00  -9.9198204927342495e+00  -1.4507670899207653e+01  -2.0912997261550554e+01  -2.9273351556684808e+01  -3.9364451275759350e+01  -4.9172231226997155e+01  -6.3765787828765603e+00  -4.9641579335624932e+00  -4.8409256587767455e+00  -6.0038535218571232e+00  -8.4846408272489455e+00  -1.2399395815080137e+01  -1.7919157078518900e+01  -2.4920086285763393e+01  -3.3234361736527305e+01  -5.8903562288754978e+00  -3.9941048712422065e+00  -2.8301697646840953e+00  -2.5387910198268226e+00  -3.2163160877226775e+00  -5.0453301767537253e+00  -8.3666627480515370e+00  -1.3595976260544864e+01  -2.1932936488082870e+01  -6.0764690965197614e+00  -3.7430199159092443e+00  -1.6287790852003550e+00  -4.0512766718991067e-02  8.6148249247377073e-01  8.0665444773217754e-01  -7.3739381057273690e-01  -4.5911957445327900e+00  -1.2725821202054151e+01  -7.8432888468764492e+00  -4.9196383856057420e+00  -1.8350715246446541e+00  9.8400254416497202e-01  3.3435951074467258e+00  4.9055229420949313e+00  4.9965937416760839e+00  2.5383179481021045e+00  -4.8639661670361800e+00  -1.1901974394030894e+01  -8.2098617750278464e+00  -4.0949721071124703e+00  -8.1160975787471834e-02  3.6480837047616417e+00  6.7164563840222353e+00  8.3790277593568092e+00  7.4256258933520858e+00  1.2920872633581642e+00  -1.9050585696360677e+01  -1.4322924292629622e+01  -9.1284458998208713e+00  -3.9571662949993263e+00  1.0482223595166875e+00  5.4784083429629273e+00  8.5500952988649530e+00  9.0506285316621096e+00  4.7337304470060673e+00  -2.9608928686448785e+01  -2.3831316816702344e+01  -1.7617270165604538e+01  -1.1400571853784854e+01  -5.3024602288355442e+00  1.8550522879802500e-01  4.2557629519015467e+00  5.8284119403253758e+00  3.8475285006340503e+00  -4.4571865145923447e+01  -3.7500440663758056e+01  -3.0249122311986937e+01  -2.2893937915624129e+01  -1.5607217754370671e+01  -9.1644915769888406e+00  -4.7871963267792399e+00  -4.1344113024846258e+00  -5.9662386453533838e+00  -9.5584137670016283e+00  -8.3947234049475927e+00  -1.0026244506981330e+01  -1.3945172254165296e+01  -1.9954278422629415e+01  -2.8146395012327687e+01  -3.8640332628659031e+01  -5.1254498858597557e+01  -6.2845168805659888e+01  -9.4671724024705579e+00  -7.3035603798545763e+00  -7.2629440225242501e+00  -8.9639226285692679e+00  -1.2260381290907411e+01  -1.7232666848546515e+01  -2.4027089809529752e+01  -3.2664994042262009e+01  -4.2885061119417728e+01  -9.2291558714465136e+00  -6.2380697419363571e+00  -4.9033192621005863e+00  -4.8829367815557072e+00  -6.0464951129190476e+00  -8.5235136840134800e+00  -1.2651812041066133e+01  -1.8981028660088288e+01  -2.8889054614042305e+01  -9.8382126910703782e+00  -6.0291708296585984e+00  -3.5521725286782382e+00  -2.0703865803721619e+00  -1.4444180295303273e+00  -1.8589706696612076e+00  -3.8404461618359664e+00  -8.3627202935059834e+00  -1.7669908815265650e+01  -1.2269484078675458e+01  -7.4493822116340596e+00  -3.8091309786209102e+00  -9.4963337792000413e-01  1.3259799648746196e+00  2.8088745341771597e+00  2.8435623974861368e+00  2.0050571758081581e-01  -7.9591738103028380e+00  -1.7334170020539773e+01  -1.1239590565432961e+01  -6.3264295296851980e+00  -2.0715953409078418e+00  1.8296150610612436e+00  5.1668273371824558e+00  7.2073939964986078e+00  6.5716204119713932e+00  5.0393853739141292e-02  -2.6000821015765002e+01  -1.8294634403796760e+01  -1.2011007159833875e+01  -6.2572632386442519e+00  -6.4905407997839148e-01  4.5970250836124666e+00  8.6788388246630710e+00  1.0100098861610817e+01  5.6510649723426667e+00  -3.8830291310803837e+01  -2.9782672224024203e+01  -2.1991596579744851e+01  -1.4568204535057044e+01  -7.0466164730365817e+00  2.5124658406506306e-01  6.4049953560062551e+00  9.8763995351006013e+00  8.0734210481784636e+00  -5.8541829099875713e+01  -4.7751277644000936e+01  -3.8225499177285919e+01  -2.8510666625396304e+01  -1.8256287969372991e+01  -8.1034295226620561e+00  6.8335153658107117e-01  5.8110548829133322e+00  5.5785186527224795e+00  -1.0644790357483128e+01  -1.0532566903154283e+01  -1.2633464719024840e+01  -1.7629542636958849e+01  -2.4784582109883996e+01  -3.4275387634019317e+01  -4.6629676386162451e+01  -6.0755053084032681e+01  -8.3616942085423034e+01  -1.1709673782786773e+01  -9.3443252057973982e+00  -9.8931874805222879e+00  -1.2235071154523869e+01  -1.6222402426886983e+01  -2.2004919952236250e+01  -2.9826907269714148e+01  -4.0241419488525430e+01  -5.2346586002773428e+01  -1.1379416211239100e+01  -8.0387593630240310e+00  -7.2391460663098286e+00  -7.8227882875141486e+00  -9.5942856502119227e+00  -1.2691193381495331e+01  -1.7586137062325939e+01  -2.5258266451960274e+01  -3.6921541430349272e+01  -1.2185160676192648e+01  -7.9413523912119697e+00  -6.0268686938611644e+00  -5.1769121805563652e+00  -5.0789144519004825e+00  -5.8967897454191203e+00  -8.2306271786007130e+00  -1.3414015177130317e+01  -2.3636260677674148e+01  -1.5058708097842125e+01  -9.6605773841450713e+00  -6.6509323416457340e+00  -4.4910523529491275e+00  -2.6912506977850477e+00  -1.3927237663912004e+00  -1.2349740528561810e+00  -3.7155452238942379e+00  -1.1916205024288274e+01  -2.0764526911490300e+01  -1.3913740564679550e+01  -9.7272217270244816e+00  -6.2793199175824501e+00  -2.8485506051248874e+00  4.8689074192969528e-01  3.1227396301012078e+00  3.5266758272595400e+00  -2.1170687649090301e+00  -3.0077508942326983e+01  -2.1521936549930057e+01  -1.6049001344871392e+01  -1.1211739987264574e+01  -6.1350618935313870e+00  -8.2045244626202596e-01  4.1912462786989089e+00  7.5210888598977093e+00  4.9457709736497044e+00  -4.3668402090398160e+01  -3.4093509911350615e+01  -2.6825885738679538e+01  -2.0099302930099526e+01  -1.2895668437993621e+01  -5.3196857375110040e+00  1.9934221153696736e+00  7.8377629020578219e+00  8.5597642470508291e+00  -7.1201138464778339e+01  -5.5337955232190261e+01  -4.5923407728684090e+01  -3.5979772003517880e+01  -2.4975180640726936e+01  -1.3394290488454692e+01  -2.2427711036266267e+00  6.7078431559614522e+00  1.0119511662733785e+01  </DataArray> 
</PointData> 
</Piece>
</UnstructuredGrid>
</VTKFile>