<?xml version="1.0"?>
<VTKFile type="UnstructuredGrid"  version="0.1"  >
<UnstructuredGrid>
<Piece  NumberOfPoints="16641" NumberOfCells="32768">
<Points>
<DataArray  type="Float64"  NumberOfComponents="3"  format="ascii">0 0 0  0.0078125 0 0  0.015625 0 0  0.0234375 0 0  0.03125 0 0  0.0390625 0 0  0.046875 0 0  0.0546875 0 0  0.0625 0 0  0.0703125 0 0  0.078125 0 0  0.0859375 0 0  0.09375 0 0  0.1015625 0 0  0.109375 0 0  0.1171875 0 0  0.125 0 0  0.1328125 0 0  0.140625 0 0  0.1484375 0 0  0.15625 0 0  0.1640625 0 0  0.171875 0 0  0.1796875 0 0  0.1875 0 0  0.1953125 0 0  0.203125 0 0  0.2109375 0 0  0.21875 0 0  0.2265625 0 0  0.234375 0 0  0.2421875 0 0  0.25 0 0  0.2578125 0 0  0.265625 0 0  0.2734375 0 0  0.28125 0 0  0.2890625 0 0  0.296875 0 0  0.3046875 0 0  0.3125 0 0  0.3203125 0 0  0.328125 0 0  0.3359375 0 0  0.34375 0 0  0.3515625 0 0  0.359375 0 0  0.3671875 0 0  0.375 0 0  0.3828125 0 0  0.390625 0 0  0.3984375 0 0  0.40625 0 0  0.4140625 0 0  0.421875 0 0  0.4296875 0 0  0.4375 0 0  0.4453125 0 0  0.453125 0 0  0.4609375 0 0  0.46875 0 0  0.4765625 0 0  0.484375 0 0  0.4921875 0 0  0.5 0 0  0.5078125 0 0  0.515625 0 0  0.5234375 0 0  0.53125 0 0  0.5390625 0 0  0.546875 0 0  0.5546875 0 0  0.5625 0 0  0.5703125 0 0  0.578125 0 0  0.5859375 0 0  0.59375 0 0  0.6015625 0 0  0.609375 0 0  0.6171875 0 0  0.625 0 0  0.6328125 0 0  0.640625 0 0  0.6484375 0 0  0.65625 0 0  0.6640625 0 0  0.671875 0 0  0.6796875 0 0  0.6875 0 0  0.6953125 0 0  0.703125 0 0  0.7109375 0 0  0.71875 0 0  0.7265625 0 0  0.734375 0 0  0.7421875 0 0  0.75 0 0  0.7578125 0 0  0.765625 0 0  0.7734375 0 0  0.78125 0 0  0.7890625 0 0  0.796875 0 0  0.8046875 0 0  0.8125 0 0  0.8203125 0 0  0.828125 0 0  0.8359375 0 0  0.84375 0 0  0.8515625 0 0  0.859375 0 0  0.8671875 0 0  0.875 0 0  0.8828125 0 0  0.890625 0 0  0.8984375 0 0  0.90625 0 0  0.9140625 0 0  0.921875 0 0  0.9296875 0 0  0.9375 0 0  0.9453125 0 0  0.953125 0 0  0.9609375 0 0  0.96875 0 0  0.9765625 0 0  0.984375 0 0  0.9921875 0 0  1 0 0  0 0.0078125 0  0.0078125 0.0078125 0  0.015625 0.0078125 0  0.0234375 0.0078125 0  0.03125 0.0078125 0  0.0390625 0.0078125 0  0.046875 0.0078125 0  0.0546875 0.0078125 0  0.0625 0.0078125 0  0.0703125 0.0078125 0  0.078125 0.0078125 0  0.0859375 0.0078125 0  0.09375 0.0078125 0  0.1015625 0.0078125 0  0.109375 0.0078125 0  0.1171875 0.0078125 0  0.125 0.0078125 0  0.1328125 0.0078125 0  0.140625 0.0078125 0  0.1484375 0.0078125 0  0.15625 0.0078125 0  0.1640625 0.0078125 0  0.171875 0.0078125 0  0.1796875 0.0078125 0  0.1875 0.0078125 0  0.1953125 0.0078125 0  0.203125 0.0078125 0  0.2109375 0.0078125 0  0.21875 0.0078125 0  0.2265625 0.0078125 0  0.234375 0.0078125 0  0.2421875 0.0078125 0  0.25 0.0078125 0  0.2578125 0.0078125 0  0.265625 0.0078125 0  0.2734375 0.0078125 0  0.28125 0.0078125 0  0.2890625 0.0078125 0  0.296875 0.0078125 0  0.3046875 0.0078125 0  0.3125 0.0078125 0  0.3203125 0.0078125 0  0.328125 0.0078125 0  0.3359375 0.0078125 0  0.34375 0.0078125 0  0.3515625 0.0078125 0  0.359375 0.0078125 0  0.3671875 0.0078125 0  0.375 0.0078125 0  0.3828125 0.0078125 0  0.390625 0.0078125 0  0.3984375 0.0078125 0  0.40625 0.0078125 0  0.4140625 0.0078125 0  0.421875 0.0078125 0  0.4296875 0.0078125 0  0.4375 0.0078125 0  0.4453125 0.0078125 0  0.453125 0.0078125 0  0.4609375 0.0078125 0  0.46875 0.0078125 0  0.4765625 0.0078125 0  0.484375 0.0078125 0  0.4921875 0.0078125 0  0.5 0.0078125 0  0.5078125 0.0078125 0  0.515625 0.0078125 0  0.5234375 0.0078125 0  0.53125 0.0078125 0  0.5390625 0.0078125 0  0.546875 0.0078125 0  0.5546875 0.0078125 0  0.5625 0.0078125 0  0.5703125 0.0078125 0  0.578125 0.0078125 0  0.5859375 0.0078125 0  0.59375 0.0078125 0  0.6015625 0.0078125 0  0.609375 0.0078125 0  0.6171875 0.0078125 0  0.625 0.0078125 0  0.6328125 0.0078125 0  0.640625 0.0078125 0  0.6484375 0.0078125 0  0.65625 0.0078125 0  0.6640625 0.0078125 0  0.671875 0.0078125 0  0.6796875 0.0078125 0  0.6875 0.0078125 0  0.6953125 0.0078125 0  0.703125 0.0078125 0  0.7109375 0.0078125 0  0.71875 0.0078125 0  0.7265625 0.0078125 0  0.734375 0.0078125 0  0.7421875 0.0078125 0  0.75 0.0078125 0  0.7578125 0.0078125 0  0.765625 0.0078125 0  0.7734375 0.0078125 0  0.78125 0.0078125 0  0.7890625 0.0078125 0  0.796875 0.0078125 0  0.8046875 0.0078125 0  0.8125 0.0078125 0  0.8203125 0.0078125 0  0.828125 0.0078125 0  0.8359375 0.0078125 0  0.84375 0.0078125 0  0.8515625 0.0078125 0  0.859375 0.0078125 0  0.8671875 0.0078125 0  0.875 0.0078125 0  0.8828125 0.0078125 0  0.890625 0.0078125 0  0.8984375 0.0078125 0  0.90625 0.0078125 0  0.9140625 0.0078125 0  0.921875 0.0078125 0  0.9296875 0.0078125 0  0.9375 0.0078125 0  0.9453125 0.0078125 0  0.953125 0.0078125 0  0.9609375 0.0078125 0  0.96875 0.0078125 0  0.9765625 0.0078125 0  0.984375 0.0078125 0  0.9921875 0.0078125 0  1 0.0078125 0  0 0.015625 0  0.0078125 0.015625 0  0.015625 0.015625 0  0.0234375 0.015625 0  0.03125 0.015625 0  0.0390625 0.015625 0  0.046875 0.015625 0  0.0546875 0.015625 0  0.0625 0.015625 0  0.0703125 0.015625 0  0.078125 0.015625 0  0.0859375 0.015625 0  0.09375 0.015625 0  0.1015625 0.015625 0  0.109375 0.015625 0  0.1171875 0.015625 0  0.125 0.015625 0  0.1328125 0.015625 0  0.140625 0.015625 0  0.1484375 0.015625 0  0.15625 0.015625 0  0.1640625 0.015625 0  0.171875 0.015625 0  0.1796875 0.015625 0  0.1875 0.015625 0  0.1953125 0.015625 0  0.203125 0.015625 0  0.2109375 0.015625 0  0.21875 0.015625 0  0.2265625 0.015625 0  0.234375 0.015625 0  0.2421875 0.015625 0  0.25 0.015625 0  0.2578125 0.015625 0  0.265625 0.015625 0  0.2734375 0.015625 0  0.28125 0.015625 0  0.2890625 0.015625 0  0.296875 0.015625 0  0.3046875 0.015625 0  0.3125 0.015625 0  0.3203125 0.015625 0  0.328125 0.015625 0  0.3359375 0.015625 0  0.34375 0.015625 0  0.3515625 0.015625 0  0.359375 0.015625 0  0.3671875 0.015625 0  0.375 0.015625 0  0.3828125 0.015625 0  0.390625 0.015625 0  0.3984375 0.015625 0  0.40625 0.015625 0  0.4140625 0.015625 0  0.421875 0.015625 0  0.4296875 0.015625 0  0.4375 0.015625 0  0.4453125 0.015625 0  0.453125 0.015625 0  0.4609375 0.015625 0  0.46875 0.015625 0  0.4765625 0.015625 0  0.484375 0.015625 0  0.4921875 0.015625 0  0.5 0.015625 0  0.5078125 0.015625 0  0.515625 0.015625 0  0.5234375 0.015625 0  0.53125 0.015625 0  0.5390625 0.015625 0  0.546875 0.015625 0  0.5546875 0.015625 0  0.5625 0.015625 0  0.5703125 0.015625 0  0.578125 0.015625 0  0.5859375 0.015625 0  0.59375 0.015625 0  0.6015625 0.015625 0  0.609375 0.015625 0  0.6171875 0.015625 0  0.625 0.015625 0  0.6328125 0.015625 0  0.640625 0.015625 0  0.6484375 0.015625 0  0.65625 0.015625 0  0.6640625 0.015625 0  0.671875 0.015625 0  0.6796875 0.015625 0  0.6875 0.015625 0  0.6953125 0.015625 0  0.703125 0.015625 0  0.7109375 0.015625 0  0.71875 0.015625 0  0.7265625 0.015625 0  0.734375 0.015625 0  0.7421875 0.015625 0  0.75 0.015625 0  0.7578125 0.015625 0  0.765625 0.015625 0  0.7734375 0.015625 0  0.78125 0.015625 0  0.7890625 0.015625 0  0.796875 0.015625 0  0.8046875 0.015625 0  0.8125 0.015625 0  0.8203125 0.015625 0  0.828125 0.015625 0  0.8359375 0.015625 0  0.84375 0.015625 0  0.8515625 0.015625 0  0.859375 0.015625 0  0.8671875 0.015625 0  0.875 0.015625 0  0.8828125 0.015625 0  0.890625 0.015625 0  0.8984375 0.015625 0  0.90625 0.015625 0  0.9140625 0.015625 0  0.921875 0.015625 0  0.9296875 0.015625 0  0.9375 0.015625 0  0.9453125 0.015625 0  0.953125 0.015625 0  0.9609375 0.015625 0  0.96875 0.015625 0  0.9765625 0.015625 0  0.984375 0.015625 0  0.9921875 0.015625 0  1 0.015625 0  0 0.0234375 0  0.0078125 0.0234375 0  0.015625 0.0234375 0  0.0234375 0.0234375 0  0.03125 0.0234375 0  0.0390625 0.0234375 0  0.046875 0.0234375 0  0.0546875 0.0234375 0  0.0625 0.0234375 0  0.0703125 0.0234375 0  0.078125 0.0234375 0  0.0859375 0.0234375 0  0.09375 0.0234375 0  0.1015625 0.0234375 0  0.109375 0.0234375 0  0.1171875 0.0234375 0  0.125 0.0234375 0  0.1328125 0.0234375 0  0.140625 0.0234375 0  0.1484375 0.0234375 0  0.15625 0.0234375 0  0.1640625 0.0234375 0  0.171875 0.0234375 0  0.1796875 0.0234375 0  0.1875 0.0234375 0  0.1953125 0.0234375 0  0.203125 0.0234375 0  0.2109375 0.0234375 0  0.21875 0.0234375 0  0.2265625 0.0234375 0  0.234375 0.0234375 0  0.2421875 0.0234375 0  0.25 0.0234375 0  0.2578125 0.0234375 0  0.265625 0.0234375 0  0.2734375 0.0234375 0  0.28125 0.0234375 0  0.2890625 0.0234375 0  0.296875 0.0234375 0  0.3046875 0.0234375 0  0.3125 0.0234375 0  0.3203125 0.0234375 0  0.328125 0.0234375 0  0.3359375 0.0234375 0  0.34375 0.0234375 0  0.3515625 0.0234375 0  0.359375 0.0234375 0  0.3671875 0.0234375 0  0.375 0.0234375 0  0.3828125 0.0234375 0  0.390625 0.0234375 0  0.3984375 0.0234375 0  0.40625 0.0234375 0  0.4140625 0.0234375 0  0.421875 0.0234375 0  0.4296875 0.0234375 0  0.4375 0.0234375 0  0.4453125 0.0234375 0  0.453125 0.0234375 0  0.4609375 0.0234375 0  0.46875 0.0234375 0  0.4765625 0.0234375 0  0.484375 0.0234375 0  0.4921875 0.0234375 0  0.5 0.0234375 0  0.5078125 0.0234375 0  0.515625 0.0234375 0  0.5234375 0.0234375 0  0.53125 0.0234375 0  0.5390625 0.0234375 0  0.546875 0.0234375 0  0.5546875 0.0234375 0  0.5625 0.0234375 0  0.5703125 0.0234375 0  0.578125 0.0234375 0  0.5859375 0.0234375 0  0.59375 0.0234375 0  0.6015625 0.0234375 0  0.609375 0.0234375 0  0.6171875 0.0234375 0  0.625 0.0234375 0  0.6328125 0.0234375 0  0.640625 0.0234375 0  0.6484375 0.0234375 0  0.65625 0.0234375 0  0.6640625 0.0234375 0  0.671875 0.0234375 0  0.6796875 0.0234375 0  0.6875 0.0234375 0  0.6953125 0.0234375 0  0.703125 0.0234375 0  0.7109375 0.0234375 0  0.71875 0.0234375 0  0.7265625 0.0234375 0  0.734375 0.0234375 0  0.7421875 0.0234375 0  0.75 0.0234375 0  0.7578125 0.0234375 0  0.765625 0.0234375 0  0.7734375 0.0234375 0  0.78125 0.0234375 0  0.7890625 0.0234375 0  0.796875 0.0234375 0  0.8046875 0.0234375 0  0.8125 0.0234375 0  0.8203125 0.0234375 0  0.828125 0.0234375 0  0.8359375 0.0234375 0  0.84375 0.0234375 0  0.8515625 0.0234375 0  0.859375 0.0234375 0  0.8671
[...]
<PointData  Scalars="f_1582"> 
<DataArray  type="Float64"  Name="f_1582"  format="ascii">-7.8990271700796499e-01  -7.8990301553522746e-01  -7.8990309876680453e-01  -7.8990308598591163e-01  -7.8990300670109914e-01  -7.8990287201176046e-01  -7.8990270037309773e-01  -7.8990250547741347e-01  -7.8990229862811667e-01  -7.8990208913905124e-01  -7.8990188462901312e-01  -7.8990169136504107e-01  -7.8990151451055857e-01  -7.8990135832659503e-01  -7.8990122633121918e-01  -7.8990112142783198e-01  -7.8990104600819855e-01  -7.8990100203641145e-01  -7.8990099111774559e-01  -7.8990101455549644e-01  -7.8990107339784710e-01  -7.8990116847746072e-01  -7.8990130044488438e-01  -7.8990146979642550e-01  -7.8990167689814239e-01  -7.8990192200655851e-01  -7.8990220528555644e-01  -7.8990252682273643e-01  -7.8990288664130137e-01  -7.8990328471245108e-01  -7.8990372096463257e-01  -7.8990419529328026e-01  -7.8990470756687403e-01  -7.8990525763536257e-01  -7.8990584533493358e-01  -7.8990647049332874e-01  -7.8990713293518144e-01  -7.8990783248461094e-01  -7.8990856897031714e-01  -7.8990934222701847e-01  -7.8991015209985460e-01  -7.8991099844456691e-01  -7.8991188113161126e-01  -7.8991280004572040e-01  -7.8991375508899309e-01  -7.8991474618056889e-01  -7.8991577325804563e-01  -7.8991683627804243e-01  -7.8991793521577314e-01  -7.8991907006644557e-01  -7.8992024084316204e-01  -7.8992144757812244e-01  -7.8992269032129636e-01  -7.8992396913911789e-01  -7.8992528411471130e-01  -7.8992663534420149e-01  -7.8992802293874698e-01  -7.8992944701906387e-01  -7.8993090771491770e-01  -7.8993240516507390e-01  -7.8993393951034840e-01  -7.8993551089502301e-01  -7.8993711946260481e-01  -7.8993876535136986e-01  -7.8994044869323277e-01  -7.8994216960887953e-01  -7.8994392820439296e-01  -7.8994572456729384e-01  -7.8994755876171385e-01  -7.8994943082546909e-01  -7.8995134076301343e-01  -7.8995328854373192e-01  -7.8995527409363875e-01  -7.8995729729210629e-01  -7.8995935796616834e-01  -7.8996145588397959e-01  -7.8996359075017530e-01  -7.8996576219862213e-01  -7.8996796978767647e-01  -7.8997021299252146e-01  -7.8997249119935065e-01  -7.8997480370034556e-01  -7.8997714968351807e-01  -7.8997952823043460e-01  -7.8998193830658980e-01  -7.8998437875631833e-01  -7.8998684829540078e-01  -7.8998934550619626e-01  -7.8999186883040029e-01  -7.8999441656224012e-01  -7.8999698684626873e-01  -7.8999957766886197e-01  -7.9000218685361934e-01  -7.9000481206088791e-01  -7.9000745078076473e-01  -7.9001010033115426e-01  -7.9001275785937009e-01  -7.9001542033693262e-01  -7.9001808456554989e-01  -7.9002074717612181e-01  -7.9002340463655218e-01  -7.9002605325701547e-01  -7.9002868919901004e-01  -7.9003130849383107e-01  -7.9003390704879584e-01  -7.9003648068054289e-01  -7.9003902513271951e-01  -7.9004153611574424e-01  -7.9004400934113639e-01  -7.9004644058008222e-01  -7.9004882571879353e-01  -7.9005116084269311e-01  -7.9005344232564900e-01  -7.9005566695735896e-01  -7.9005783208363134e-01  -7.9005993580810985e-01  -7.9006197721998939e-01  -7.9006395672379115e-01  -7.9006587641529902e-01  -7.9006774065899910e-01  -7.9006955721285688e-01  -7.9007133478611058e-01  -7.9007309892811695e-01  -7.9007487204771265e-01  -7.9007653698797997e-01  -7.9007905110863530e-01  -7.9008071020542914e-01  -7.9007230867647282e-01  -7.9019937612565150e-01  -7.8990289542201542e-01  -7.8990315814722367e-01  -7.8990321415500198e-01  -7.8990323232107151e-01  -7.8990318414176874e-01  -7.8990308770966833e-01  -7.8990295668868082e-01  -7.8990280237389376e-01  -7.8990263489864343e-01  -7.8990246278577381e-01  -7.8990229321582595e-01  -7.8990213222082861e-01  -7.8990198485737684e-01  -7.8990185536186752e-01  -7.8990174728020990e-01  -7.8990166357662250e-01  -7.8990160672418841e-01  -7.8990157878047329e-01  -7.8990158145072575e-01  -7.8990161614091270e-01  -7.8990168400236793e-01  -7.8990178596965910e-01  -7.8990192279275229e-01  -7.8990209506444020e-01  -7.8990230324392186e-01  -7.8990254767701451e-01  -7.8990282861366423e-01  -7.8990314622324687e-01  -7.8990350060756520e-01  -7.8990389181255993e-01  -7.8990431983825971e-01  -7.8990478464772973e-01  -7.8990528617463185e-01  -7.8990582433031042e-01  -7.8990639900950077e-01  -7.8990701009580866e-01  -7.8990765746628411e-01  -7.8990834099536567e-01  -7.8990906055867405e-01  -7.8990981603581134e-01  -7.8991060731338758e-01  -7.8991143428690558e-01  -7.8991229686315501e-01  -7.8991319496135748e-01  -7.8991412851496468e-01  -7.8991509747225819e-01  -7.8991610179741223e-01  -7.8991714147085745e-01  -7.8991821648952976e-01  -7.8991932686701871e-01  -7.8992047263309084e-01  -7.8992165383353408e-01  -7.8992287052930865e-01  -7.8992412279570057e-01  -7.8992541072128297e-01  -7.8992673440634942e-01  -7.8992809396201402e-01  -7.8992948950745245e-01  -7.8993092116893848e-01  -7.8993238907713414e-01  -7.8993389336467790e-01  -7.8993543416403711e-01  -7.8993701160420982e-01  -7.8993862580788687e-01  -7.8994027688838830e-01  -7.8994196494592717e-01  -7.8994369006429421e-01  -7.8994545230669411e-01  -7.8994725171195324e-01  -7.8994908829009125e-01  -7.8995096201791792e-01  -7.8995287283460058e-01  -7.8995482063632849e-01  -7.8995680527198764e-01  -7.8995882653743599e-01  -7.8996088417046151e-01  -7.8996297784530123e-01  -7.8996510716689650e-01  -7.8996727166546354e-01  -7.8996947079019408e-01  -7.8997170390406457e-01  -7.8997397027738514e-01  -7.8997626908188545e-01  -7.8997859938513282e-01  -7.8998096014428976e-01  -7.8998335020058130e-01  -7.8998576827331224e-01  -7.8998821295489385e-01  -7.8999068270514039e-01  -7.8999317584650164e-01  -7.8999569055994567e-01  -7.8999822488021987e-01  -7.9000077669288049e-01  -7.9000334373150749e-01  -7.9000592357552701e-01  -7.9000851364941349e-01  -7.9001111122284440e-01  -7.9001371341169968e-01  -7.9001631718179277e-01  -7.9001891935316737e-01  -7.9002151660731479e-01  -7.9002410549637947e-01  -7.9002668245574081e-01  -7.9002924381994422e-01  -7.9003178584160194e-01  -7.9003430471766101e-01  -7.9003679661841908e-01  -7.9003925772566319e-01  -7.9004168427769761e-01  -7.9004407262601728e-01  -7.9004641930234099e-01  -7.9004872110320290e-01  -7.9005097519196665e-01  -7.9005317922596208e-01  -7.9005533151379725e-01  -7.9005743121409355e-01  -7.9005947858447279e-01  -7.9006147530114967e-01  -7.9006342487798642e-01  -7.9006533323363981e-01  -7.9006720927836283e-01  -7.9006906646503783e-01  -7.9007092516240152e-01  -7.9007279847735801e-01  -7.9007478945387666e-01  -7.9007688090602168e-01  -7.9007849809723274e-01  -7.9008619751030484e-01  -7.9007474039719949e-01  -7.8990319495250805e-01  -7.8990347660380789e-01  -7.8990352852853440e-01  -7.8990355856175543e-01  -7.8990352596319346e-01  -7.8990345451747312e-01  -7.8990335175993764e-01  -7.8990322755609044e-01  -7.8990309057392605e-01  -7.8990294833881380e-01  -7.8990280739158092e-01  -7.8990267334154995e-01  -7.8990255098018614e-01  -7.8990244438675183e-01  -7.8990235702476963e-01  -7.8990229182790106e-01  -7.8990225127459801e-01  -7.8990223745251020e-01  -7.8990225211379794e-01  -7.8990229672256740e-01  -7.8990237249556916e-01  -7.8990248043716582e-01  -7.8990262136945422e-01  -7.8990279595825996e-01  -7.8990300473562591e-01  -7.8990324811934098e-01  -7.8990352642993877e-01  -7.8990383990551105e-01  -7.8990418871466239e-01  -7.8990457296789451e-01  -7.8990499272755565e-01  -7.8990544801664586e-01  -7.8990593882650395e-01  -7.8990646512363094e-01  -7.8990702685569669e-01  -7.8990762395680947e-01  -7.8990825635216400e-01  -7.8990892396212686e-01  -7.8990962670580878e-01  -7.8991036450416996e-01  -7.8991113728270901e-01  -7.8991194497375128e-01  -7.8991278751842686e-01  -7.8991366486827475e-01  -7.8991457698658019e-01  -7.8991552384935737e-01  -7.8991650544615499e-01  -7.8991752178051888e-01  -7.8991857287025646e-01  -7.8991965874743586e-01  -7.8992077945816175e-01  -7.8992193506212760e-01  -7.8992312563195544e-01  -7.8992435125230309e-01  -7.8992561201875144e-01  -7.8992690803652410e-01  -7.8992823941897328e-01  -7.8992960628582298e-01  -7.8993100876126920e-01  -7.8993244697183984e-01  -7.8993392104409599e-01  -7.8993543110202724e-01  -7.8993697726439516e-01  -7.8993855964178183e-01  -7.8994017833340868e-01  -7.8994183342389446e-01  -7.8994352497969900e-01  -7.8994525304542673e-01  -7.8994701763990283e-01  -7.8994881875217060e-01  -7.8995065633721628e-01  -7.8995253031151946e-01  -7.8995444054858566e-01  -7.8995638687407532e-01  -7.8995836906103123e-01  -7.8996038682483138e-01  -7.8996243981814052e-01  -7.8996452762565461e-01  -7.8996664975872288e-01  -7.8996880565014704e-01  -7.8997099464864085e-01  -7.8997321601350889e-01  -7.8997546890922254e-01  -7.8997775240007972e-01  -7.8998006544494126e-01  -7.8998240689216026e-01  -7.8998477547463319e-01  -7.8998716980506911e-01  -7.8998958837161792e-01  -7.8999202953393999e-01  -7.8999449151946000e-01  -7.8999697242046774e-01  -7.8999947019164973e-01  -7.9000198264850363e-01  -7.9000450746663875e-01  -7.9000704218191908e-01  -7.9000958419219180e-01  -7.9001213075999277e-01  -7.9001467901736011e-01  -7.9001722597207713e-01  -7.9001976851662414e-01  -7.9002230343938162e-01  -7.9002482743910274e-01  -7.9002733714283957e-01  -7.9002982912808817e-01  -7.9003229994980262e-01  -7.9003474617349501e-01  -7.9003716441521865e-01  -7.9003955138978421e-01  -7.9004190396934548e-01  -7.9004421925421209e-01  -7.9004649465867038e-01  -7.9004872801538584e-01  -7.9005091770296598e-01  -7.9005306280284848e-01  -7.9005516329282666e-01  -7.9005722028890901e-01  -7.9005923634822051e-01  -7.9006121586292943e-01  -7.9006316552934108e-01  -7.9006509511828316e-01  -7.9006701818273517e-01  -7.9006895311310432e-01  -7.9007092775543875e-01  -7.9007298242349655e-01  -7.9007508046200192e-01  -7.9007784067278575e-01  -7.9007905029632008e-01  -7.9008286971851449e-01  -7.8990358054026821e-01  -7.8990383436591549e-01  -7.8990386991872519e-01  -7.8990389829519880e-01  -7.8990387268247708e-01  -7.8990381553963585e-01  -7.8990373113378443e-01  -7.8990362829655780e-01  -7.8990351408395587e-01  -7.8990339504058693e-01  -7.8990327696456752e-01  -7.8990316493547785e-01  -7.8990306337605887e-01  -7.8990297611304017e-01  -7.8990290644323835e-01  -7.8990285719642206e-01  -7.8990283079314572e-01  -7.8990282929681443e-01  -7.8990285445988440e-01  -7.8990290776458805e-01  -7.8990299045864087e-01  -7.8990310358649762e-01  -7.8990324801670697e-01  -7.8990342446580508e-01  -7.8990363351926030e-01  -7.8990387564983155e-01  -7.8990415123367497e-01  -7.8990446056448793e-01  -7.8990480386600836e-01  -7.8990518130296472e-01  -7.8990559299080676e-01  -7.8990603900423362e-01  -7.8990651938478784e-01  -7.8990703414755681e-01  -7.8990758328704347e-01  -7.8990816678243414e-01  -7.8990878460215486e-01  -7.8990943670794300e-01  -7.8991012305837871e-01  -7.8991084361197994e-01  -7.8991159832983504e-01  -7.8991238717795853e-01  -7.8991321012916282e-01  -7.8991406716470391e-01  -7.8991495827554581e-01  -7.8991588346341945e-01  -7.8991684274153995e-01  -7.8991783613510114e-01  -7.8991886368150055e-01  -7.8991992543034484e-01  -7.8992102144323373e-01  -7.8992215179330061e-01  -7.8992331656453318e-01  -7.8992451585087831e-01  -7.8992574975520458e-01  -7.8992701838798496e-01  -7.8992832186577322e-01  -7.8992966030955558e-01  -7.8993103384282759e-01  -7.8993244258951445e-01  -7.8993388667171094e-01  -7.8993536620721461e-01  -7.8993688130684536e-01  -7.8993843207161951e-01  -7.8994001858970164e-01  -7.8994164093323438e-01  -7.8994329915492445e-01  -7.8994499328449597e-01  -7.8994672332494409e-01  -7.8994848924869698e-01  -7.8995029099350011e-01  -7.8995212845832175e-01  -7.8995400149887007e-01  -7.8995590992324982e-01  -7.8995785348736614e-01  -7.8995983189019547e-01  -7.8996184476901221e-01  -7.8996389169451442e-01  -7.8996597216598352e-01  -7.8996808560627618e-01  -7.8997023135689703e-01  -7.8997240867312146e-01  -7.8997461671898528e-01  -7.8997685456266520e-01  -7.8997912117169955e-01  -7.8998141540852429e-01  -7.8998373602621019e-01  -7.8998608166448459e-01  -7.8998845084616220e-01  -7.8999084197371361e-01  -7.8999325332677917e-01  -7.8999568305982226e-01  -7.8999812920085066e-01  -7.9000058965069275e-01  -7.9000306218327387e-01  -7.9000554444719129e-01  -7.9000803396819319e-01  -7.9001052815349726e-01  -7.9001302429754372e-01  -7.9001551958994243e-01  -7.9001801112556436e-01  -7.9002049591734669e-01  -7.9002297091221763e-01  -7.9002543301047889e-01  -7.9002787908953942e-01  -7.9003030603251401e-01  -7.9003271076264736e-01  -7.9003509028448426e-01  -7.9003744173320634e-01  -7.9003976243364038e-01  -7.9004204997110428e-01  -7.9004430227573397e-01  -7.9004651772436196e-01  -7.9004869526277866e-01  -7.9005083455367320e-01  -7.9005293615571226e-01  -7.9005500174252030e-01  -7.9005703436870112e-01  -7.9005903880203809e-01  -7.9006102191647309e-01  -7.9006299325895968e-01  -7.9006496536222126e-01  -7.9006695574045449e-01  -7.9006898371889633e-01  -7.9007107854238290e-01  -7.9007327416275719e-01  -7.9007556084149966e-01  -7.9007780619918022e-01  -7.9008167216818048e-01  -7.8990402818548511e-01  -7.8990425061487790e-01  -7.8990426722906359e-01  -7.8990428613957409e-01  -7.8990425915251283e-01  -7.8990420736212097e-01  -7.8990413329411702e-01  -7.8990404431298045e-01  -7.8990394609359682e-01  -7.8990384423781623e-01  -7.8990374375541028e-01  -7.8990364914539968e-01  -7.8990356439620690e-01  -7.8990349301588081e-01  -7.8990343807174368e-01  -7.8990340223210653e-01  -7.8990338780799552e-01  -7.8990339679279653e-01  -7.8990343089900017e-01  -7.8990349159168005e-01  -7.8990358011862871e-01  -7.8990369753737166e-01  -7.8990384473922182e-01  -7.8990402247066294e-01  -7.8990423135235199e-01  -7.8990447189592805e-01  -7.8990474451896353e-01  -7.8990504955821050e-01  -7.8990538728134374e-01  -7.8990575789738149e-01  -7.8990616156596438e-01  -7.8990659840555666e-01  -7.8990706850077008e-01  -7.8990757190881633e-01  -7.8990810866526329e-01  -7.8990867878911841e-01  -7.8990928228732193e-01  -7.8990991915870556e-01  -7.8991058939744119e-01  -7.8991129299609053e-01  -7.8991202994823495e-01  -7.8991280025070165e-01  -7.8991360390545240e-01  -7.8991444092118535e-01  -7.8991531131460424e-01  -7.8991621511140897e-01  -7.8991715234700655e-01  -7.8991812306700093e-01  -7.8991912732740277e-01  -7.8992016519460906e-01  -7.8992123674519898e-01  -7.8992234206544654e-01  -7.8992348125066869e-01  -7.8992465440435589e-01  -7.8992586163709466e-01  -7.8992710306526859e-01  -7.8992837880964384e-01  -7.8992968899361760e-01  -7.8993103374148654e-01  -7.8993241317629104e-01  -7.8993382741768559e-01  -7.8993527657949070e-01  -7.8993676076711594e-01  -7.8993828007482603e-01  -7.8993983458282935e-01  -7.8994142435414516e-01  -7.8994304943137905e-01  -7.8994470983327758e-01  -7.8994640555119966e-01  -7.8994813654541196e-01  -7.8994990274120969e-01  -7.8995170402490478e-01  -7.8995354023976760e-01  -7.8995541118187840e-01  -7.8995731659563484e-01  -7.8995925616951268e-01  -7.8996122953158088e-01  -7.8996323624491838e-01  -7.8996527580314024e-01  -7.8996734762584042e-01  -7.8996945105405936e-01  -7.8997158534572354e-01  -7.8997374967141765e-01  -7.8997594310995922e-01  -7.8997816464428672e-01  -7.8998041315765111e-01  -7.8998268742985633e-01  -7.8998498613392387e-01  -7.8998730783317317e-01  -7.8998965097865259e-01  -7.8999201390716445e-01  -7.8999439483999612e-01  -7.8999679188218608e-01  -7.8999920302279314e-01  -7.9000162613612168e-01  -7.9000405898409576e-01  -7.9000649921982025e-01  -7.9000894439281111e-01  -7.9001139195584491e-01  -7.9001383927394675e-01  -7.9001628363537257e-01  -7.9001872226564118e-01  -7.9002115234424908e-01  -7.9002357102515852e-01  -7.9002597546130071e-01  -7.9002836283370270e-01  -7.9003073038633287e-01  -7.9003307546720780e-01  -7.9003539557734126e-01  -7.9003768842827993e-01  -7.9003995201015575e-01  -7.9004218467227627e-01  -7.9004438521817999e-01  -7.9004655301813986e-01  -7.9004868814212170e-01  -7.9005079151696178e-01  -7.9005286511225725e-01  -7.9005491215713408e-01  -7.9005693739938265e-01  -7.9005894738005933e-01  -7.9006095081072747e-01  -7.9006295869420096e-01  -7.9006498536770697e-01  -7.9006704493686708e-01  -7.9006916517446524e-01  -7.9007132599828733e-01  -7.9007365988842448e-01  -7.9007579227106572e-01  -7.9007895464989930e-01  -7.8990452631618069e-01  -7.8990471049959110e-01  -7.8990469990639323e-01  -7.8990470224351239e-01  -7.8990466727822195e-01  -7.8990461419347147e-01  -7.8990454396105436e-01  -7.8990446258453217e-01  -7.8990437461343554e-01  -7.8990428471768737e-01  -7.8990419713998228e-01  -7.8990411578609121e-01  -7.8990404417795301e-01  -7.8990398546623575e-01  -7.8990394244701156e-01  -7.8990391758580891e-01  -7.8990391304491236e-01  -7.8990393071144860e-01  -7.8990397222495734e-01  -7.8990403900361827e-01  -7.8990413226869738e-01  -7.8990425306705958e-01  -7.8990440229166969e-01  -7.8990458070018699e-01  -7.8990478893173199e-01  -7.8990502752196767e-01  -7.8990529691664213e-01  -7.8990559748371125e-01  -7.8990592952420768e-01  -7.8990629328196560e-01  -7.8990668895231131e-01  -7.8990711668983726e-01  -7.8990757661530109e-01  -7.8990806882183295e-01  -7.8990859338043451e-01  -7.8990915034485254e-01  -7.8990973975592937e-01  -7.8991036164538375e-01  -7.8991101603924563e-01  -7.8991170296072255e-01  -7.8991242243275739e-01  -7.8991317448021681e-01  -7.8991395913176010e-01  -7.8991477642131969e-01  -7.8991562638938417e-01  -7.8991650908391553e-01  -7.8991742456108116e-01  -7.8991837288567268e-01  -7.8991935413131431e-01  -7.8992036838045576e-01  -7.8992141572412500e-01  -7.8992249626145394e-01  -7.8992361009901035e-01  -7.8992475734996948e-01  -7.8992593813301892e-01  -7.8992715257112045e-01  -7.8992840079005311e-01  -7.8992968291677501e-01  -7.8993099907765441e-01  -7.8993234939646650e-01  -7.8993373399221056e-01  -7.8993515297682382e-01  -7.8993660645262798e-01  -7.8993809450974528e-01  -7.8993961722317552e-01  -7.8994117464992475e-01  -7.8994276682579978e-01  -7.8994439376217174e-01  -7.8994605544262264e-01  -7.8994775181927879e-01  -7.8994948280920685e-01  -7.8995124829069585e-01  -7.8995304809934419e-01  -7.8995488202401509e-01  -7.8995674980288499e-01  -7.8995865111930141e-01  -7.8996058559758797e-01  -7.8996255279884964e-01  -7.8996455221686990e-01  -7.8996658327381164e-01  -7.8996864531613054e-01  -7.8997073761056835e-01  -7.8997285934012518e-01  -7.8997500960022526e-01  -7.8997718739515688e-01  -7.8997939163464159e-01  -7.8998162113069181e-01  -7.8998387459491060e-01  -7.8998615063607347e-01  -7.8998844775818888e-01  -7.8999076435935278e-01  -7.8999309873088108e-01  -7.8999544905746033e-01  -7.8999781341813113e-01  -7.9000018978823372e-01  -7.9000257604248736e-01  -7.9000496995942060e-01  -7.9000736922728609e-01  -7.9000977145179940e-01  -7.9001217416564595e-01  -7.9001457484033888e-01  -7.9001697090072975e-01  -7.9001935974245974e-01  -7.9002173875257309e-01  -7.9002410533419443e-01  -7.9002645693567342e-01  -7.9002879108479729e-01  -7.9003110542883237e-01  -7.9003339778134241e-01  -7.9003566617696075e-01  -7.9003790893499937e-01  -7.9004012473370067e-01  -7.9004231269573955e-01  -7.9004447248788046e-01  -7.9004660443517349e-01  -7.9004870965196738e-01  -7.9005079019011015e-01  -7.9005284920301044e-01  -7.9005489112799065e-01  -7.9005692185013898e-01  -7.9005894892970840e-01  -7.9006098145749759e-01  -7.9006303084454454e-01  -7.9006510735709046e-01  -7.9006723027571280e-01  -7.9006938373854607e-01  -7.9007168067253530e-01  -7.9007372199797365e-01  -7.9007701374338102e-01  -7.8990505757184570e-01  -7.8990520096757000e-01  -7.8990515975251097e-01  -7.8990514148446922e-01  -7.8990509363240047e-01  -7.8990503404269774e-01  -7.8990496240400643e-01  -7.8990488354796295e-01  -7.8990480101000071e-01  -7.8990471859113753e-01  -7.8990463981880987e-01  -7.8990456801427322e-01  -7.8990450622703756e-01  -7.8990445723285652e-01  -7.8990442353238355e-01  -7.8990440736136813e-01  -7.8990441070558448e-01  -7.8990443531870247e-01  -7.8990448274147973e-01  -7.8990455432114115e-01  -7.8990465123028397e-01  -7.8990477448491048e-01  -7.89904924