<?xml version="1.0"?>
<VTKFile type="UnstructuredGrid"  version="0.1"  >
<UnstructuredGrid>
<Piece  NumberOfPoints="1089" NumberOfCells="2048">
<Points>
<DataArray  type="Float64"  NumberOfComponents="3"  format="ascii">0 0 0  0.03125 0 0  0.0625 0 0  0.09375 0 0  0.125 0 0  0.15625 0 0  0.1875 0 0  0.21875 0 0  0.25 0 0  0.28125 0 0  0.3125 0 0  0.34375 0 0  0.375 0 0  0.40625 0 0  0.4375 0 0  0.46875 0 0  0.5 0 0  0.53125 0 0  0.5625 0 0  0.59375 0 0  0.625 0 0  0.65625 0 0  0.6875 0 0  0.71875 0 0  0.75 0 0  0.78125 0 0  0.8125 0 0  0.84375 0 0  0.875 0 0  0.90625 0 0  0.9375 0 0  0.96875 0 0  1 0 0  0 0.03125 0  0.03125 0.03125 0  0.0625 0.03125 0  0.09375 0.03125 0  0.125 0.03125 0  0.15625 0.03125 0  0.1875 0.03125 0  0.21875 0.03125 0  0.25 0.03125 0  0.28125 0.03125 0  0.3125 0.03125 0  0.34375 0.03125 0  0.375 0.03125 0  0.40625 0.03125 0  0.4375 0.03125 0  0.46875 0.03125 0  0.5 0.03125 0  0.53125 0.03125 0  0.5625 0.03125 0  0.59375 0.03125 0  0.625 0.03125 0  0.65625 0.03125 0  0.6875 0.03125 0  0.71875 0.03125 0  0.75 0.03125 0  0.78125 0.03125 0  0.8125 0.03125 0  0.84375 0.03125 0  0.875 0.03125 0  0.90625 0.03125 0  0.9375 0.03125 0  0.96875 0.03125 0  1 0.03125 0  0 0.0625 0  0.03125 0.0625 0  0.0625 0.0625 0  0.09375 0.0625 0  0.125 0.0625 0  0.15625 0.0625 0  0.1875 0.0625 0  0.21875 0.0625 0  0.25 0.0625 0  0.28125 0.0625 0  0.3125 0.0625 0  0.34375 0.0625 0  0.375 0.0625 0  0.40625 0.0625 0  0.4375 0.0625 0  0.46875 0.0625 0  0.5 0.0625 0  0.53125 0.0625 0  0.5625 0.0625 0  0.59375 0.0625 0  0.625 0.0625 0  0.65625 0.0625 0  0.6875 0.0625 0  0.71875 0.0625 0  0.75 0.0625 0  0.78125 0.0625 0  0.8125 0.0625 0  0.84375 0.0625 0  0.875 0.0625 0  0.90625 0.0625 0  0.9375 0.0625 0  0.96875 0.0625 0  1 0.0625 0  0 0.09375 0  0.03125 0.09375 0  0.0625 0.09375 0  0.09375 0.09375 0  0.125 0.09375 0  0.15625 0.09375 0  0.1875 0.09375 0  0.21875 0.09375 0  0.25 0.09375 0  0.28125 0.09375 0  0.3125 0.09375 0  0.34375 0.09375 0  0.375 0.09375 0  0.40625 0.09375 0  0.4375 0.09375 0  0.46875 0.09375 0  0.5 0.09375 0  0.53125 0.09375 0  0.5625 0.09375 0  0.59375 0.09375 0  0.625 0.09375 0  0.65625 0.09375 0  0.6875 0.09375 0  0.71875 0.09375 0  0.75 0.09375 0  0.78125 0.09375 0  0.8125 0.09375 0  0.84375 0.09375 0  0.875 0.09375 0  0.90625 0.09375 0  0.9375 0.09375 0  0.96875 0.09375 0  1 0.09375 0  0 0.125 0  0.03125 0.125 0  0.0625 0.125 0  0.09375 0.125 0  0.125 0.125 0  0.15625 0.125 0  0.1875 0.125 0  0.21875 0.125 0  0.25 0.125 0  0.28125 0.125 0  0.3125 0.125 0  0.34375 0.125 0  0.375 0.125 0  0.40625 0.125 0  0.4375 0.125 0  0.46875 0.125 0  0.5 0.125 0  0.53125 0.125 0  0.5625 0.125 0  0.59375 0.125 0  0.625 0.125 0  0.65625 0.125 0  0.6875 0.125 0  0.71875 0.125 0  0.75 0.125 0  0.78125 0.125 0  0.8125 0.125 0  0.84375 0.125 0  0.875 0.125 0  0.90625 0.125 0  0.9375 0.125 0  0.96875 0.125 0  1 0.125 0  0 0.15625 0  0.03125 0.15625 0  0.0625 0.15625 0  0.09375 0.15625 0  0.125 0.15625 0  0.15625 0.15625 0  0.1875 0.15625 0  0.21875 0.15625 0  0.25 0.15625 0  0.28125 0.15625 0  0.3125 0.15625 0  0.34375 0.15625 0  0.375 0.15625 0  0.40625 0.15625 0  0.4375 0.15625 0  0.46875 0.15625 0  0.5 0.15625 0  0.53125 0.15625 0  0.5625 0.15625 0  0.59375 0.15625 0  0.625 0.15625 0  0.65625 0.15625 0  0.6875 0.15625 0  0.71875 0.15625 0  0.75 0.15625 0  0.78125 0.15625 0  0.8125 0.15625 0  0.84375 0.15625 0  0.875 0.15625 0  0.90625 0.15625 0  0.9375 0.15625 0  0.96875 0.15625 0  1 0.15625 0  0 0.1875 0  0.03125 0.1875 0  0.0625 0.1875 0  0.09375 0.1875 0  0.125 0.1875 0  0.15625 0.1875 0  0.1875 0.1875 0  0.21875 0.1875 0  0.25 0.1875 0  0.28125 0.1875 0  0.3125 0.1875 0  0.34375 0.1875 0  0.375 0.1875 0  0.40625 0.1875 0  0.4375 0.1875 0  0.46875 0.1875 0  0.5 0.1875 0  0.53125 0.1875 0  0.5625 0.1875 0  0.59375 0.1875 0  0.625 0.1875 0  0.65625 0.1875 0  0.6875 0.1875 0  0.71875 0.1875 0  0.75 0.1875 0  0.78125 0.1875 0  0.8125 0.1875 0  0.84375 0.1875 0  0.875 0.1875 0  0.90625 0.1875 0  0.9375 0.1875 0  0.96875 0.1875 0  1 0.1875 0  0 0.21875 0  0.03125 0.21875 0  0.0625 0.21875 0  0.09375 0.21875 0  0.125 0.21875 0  0.15625 0.21875 0  0.1875 0.21875 0  0.21875 0.21875 0  0.25 0.21875 0  0.28125 0.21875 0  0.3125 0.21875 0  0.34375 0.21875 0  0.375 0.21875 0  0.40625 0.21875 0  0.4375 0.21875 0  0.46875 0.21875 0  0.5 0.21875 0  0.53125 0.21875 0  0.5625 0.21875 0  0.59375 0.21875 0  0.625 0.21875 0  0.65625 0.21875 0  0.6875 0.21875 0  0.71875 0.21875 0  0.75 0.21875 0  0.78125 0.21875 0  0.8125 0.21875 0  0.84375 0.21875 0  0.875 0.21875 0  0.90625 0.21875 0  0.9375 0.21875 0  0.96875 0.21875 0  1 0.21875 0  0 0.25 0  0.03125 0.25 0  0.0625 0.25 0  0.09375 0.25 0  0.125 0.25 0  0.15625 0.25 0  0.1875 0.25 0  0.21875 0.25 0  0.25 0.25 0  0.28125 0.25 0  0.3125 0.25 0  0.34375 0.25 0  0.375 0.25 0  0.40625 0.25 0  0.4375 0.25 0  0.46875 0.25 0  0.5 0.25 0  0.53125 0.25 0  0.5625 0.25 0  0.59375 0.25 0  0.625 0.25 0  0.65625 0.25 0  0.6875 0.25 0  0.71875 0.25 0  0.75 0.25 0  0.78125 0.25 0  0.8125 0.25 0  0.84375 0.25 0  0.875 0.25 0  0.90625 0.25 0  0.9375 0.25 0  0.96875 0.25 0  1 0.25 0  0 0.28125 0  0.03125 0.28125 0  0.0625 0.28125 0  0.09375 0.28125 0  0.125 0.28125 0  0.15625 0.28125 0  0.1875 0.28125 0  0.21875 0.28125 0  0.25 0.28125 0  0.28125 0.28125 0  0.3125 0.28125 0  0.34375 0.28125 0  0.375 0.28125 0  0.40625 0.28125 0  0.4375 0.28125 0  0.46875 0.28125 0  0.5 0.28125 0  0.53125 0.28125 0  0.5625 0.28125 0  0.59375 0.28125 0  0.625 0.28125 0  0.65625 0.28125 0  0.6875 0.28125 0  0.71875 0.28125 0  0.75 0.28125 0  0.78125 0.28125 0  0.8125 0.28125 0  0.84375 0.28125 0  0.875 0.28125 0  0.90625 0.28125 0  0.9375 0.28125 0  0.96875 0.28125 0  1 0.28125 0  0 0.3125 0  0.03125 0.3125 0  0.0625 0.3125 0  0.09375 0.3125 0  0.125 0.3125 0  0.15625 0.3125 0  0.1875 0.3125 0  0.21875 0.3125 0  0.25 0.3125 0  0.28125 0.3125 0  0.3125 0.3125 0  0.34375 0.3125 0  0.375 0.3125 0  0.40625 0.3125 0  0.4375 0.3125 0  0.46875 0.3125 0  0.5 0.3125 0  0.53125 0.3125 0  0.5625 0.3125 0  0.59375 0.3125 0  0.625 0.3125 0  0.65625 0.3125 0  0.6875 0.3125 0  0.71875 0.3125 0  0.75 0.3125 0  0.78125 0.3125 0  0.8125 0.3125 0  0.84375 0.3125 0  0.875 0.3125 0  0.90625 0.3125 0  0.9375 0.3125 0  0.96875 0.3125 0  1 0.3125 0  0 0.34375 0  0.03125 0.34375 0  0.0625 0.34375 0  0.09375 0.34375 0  0.125 0.34375 0  0.15625 0.34375 0  0.1875 0.34375 0  0.21875 0.34375 0  0.25 0.34375 0  0.28125 0.34375 0  0.3125 0.34375 0  0.34375 0.34375 0  0.375 0.34375 0  0.40625 0.34375 0  0.4375 0.34375 0  0.46875 0.34375 0  0.5 0.34375 0  0.53125 0.34375 0  0.5625 0.34375 0  0.59375 0.34375 0  0.625 0.34375 0  0.65625 0.34375 0  0.6875 0.34375 0  0.71875 0.34375 0  0.75 0.34375 0  0.78125 0.34375 0  0.8125 0.34375 0  0.84375 0.34375 0  0.875 0.34375 0  0.90625 0.34375 0  0.9375 0.34375 0  0.96875 0.34375 0  1 0.34375 0  0 0.375 0  0.03125 0.375 0  0.0625 0.375 0  0.09375 0.375 0  0.125 0.375 0  0.15625 0.375 0  0.1875 0.375 0  0.21875 0.375 0  0.25 0.375 0  0.28125 0.375 0  0.3125 0.375 0  0.34375 0.375 0  0.375 0.375 0  0.40625 0.375 0  0.4375 0.375 0  0.46875 0.375 0  0.5 0.375 0  0.53125 0.375 0  0.5625 0.375 0  0.59375 0.375 0  0.625 0.375 0  0.65625 0.375 0  0.6875 0.375 0  0.71875 0.375 0  0.75 0.375 0  0.78125 0.375 0  0.8125 0.375 0  0.84375 0.375 0  0.875 0.375 0  0.90625 0.375 0  0.9375 0.375 0  0.96875 0.375 0  1 0.375 0  0 0.40625 0  0.03125 0.40625 0  0.0625 0.40625 0  0.09375 0.40625 0  0.125 0.40625 0  0.15625 0.40625 0  0.1875 0.40625 0  0.21875 0.40625 0  0.25 0.40625 0  0.28125 0.40625 0  0.3125 0.40625 0  0.34375 0.40625 0  0.375 0.40625 0  0.40625 0.40625 0  0.4375 0.40625 0  0.46875 0.40625 0  0.5 0.40625 0  0.53125 0.40625 0  0.5625 0.40625 0  0.59375 0.40625 0  0.625 0.40625 0  0.65625 0.40625 0  0.6875 0.40625 0  0.71875 0.40625 0  0.75 0.40625 0  0.78125 0.40625 0  0.8125 0.40625 0  0.84375 0.40625 0  0.875 0.40625 0  0.90625 0.40625 0  0.9375 0.40625 0  0.96875 0.40625 0  1 0.40625 0  0 0.4375 0  0.03125 0.4375 0  0.0625 0.4375 0  0.09375 0.4375 0  0.125 0.4375 0  0.15625 0.4375 0  0.1875 0.4375 0  0.21875 0.4375 0  0.25 0.4375 0  0.28125 0.4375 0  0.3125 0.4375 0  0.34375 0.4375 0  0.375 0.4375 0  0.40625 0.4375 0  0.4375 0.4375 0  0.46875 0.4375 0  0.5 0.4375 0  0.53125 0.4375 0  0.5625 0.4375 0  0.59375 0.4375 0  0.625 0.4375 0  0.65625 0.4375 0  0.6875 0.4375 0  0.71875 0.4375 0  0.75 0.4375 0  0.78125 0.4375 0  0.8125 0.4375 0  0.84375 0.4375 0  0.875 0.4375 0  0.90625 0.4375 0  0.9375 0.4375 0  0.96875 0.4375 0  1 0.4375 0  0 0.46875 0  0.03125 0.46875 0  0.0625 0.46875 0  0.09375 0.46875 0  0.125 0.46875 0  0.15625 0.46875 0  0.1875 0.46875 0  0.21875 0.46875 0  0.25 0.46875 0  0.28125 0.46875 0  0.3125 0.46875 0  0.34375 0.46875 0  0.375 0.46875 0  0.40625 0.46875 0  0.4375 0.46875 0  0.46875 0.46875 0  0.5 0.46875 0  0.53125 0.46875 0  0.5625 0.46875 0  0.59375 0.46875 0  0.625 0.46875 0  0.65625 0.46875 0  0.6875 0.46875 0  0.71875 0.46875 0  0.75 0.46875 0  0.78125 0.46875 0  0.8125 0.46875 0  0.84375 0.46875 0  0.875 0.46875 0  0.90625 0.46875 0  0.9375 0.46875 0  0.96875 0.46875 0  1 0.46875 0  0 0.5 0  0.03125 0.5 0  0.0625 0.5 0  0.09375 0.5 0  0.125 0.5 0  0.15625 0.5 0  0.1875 0.5 0  0.21875 0.5 0  0.25 0.5 0  0.28125 0.5 0  0.3125 0.5 0  0.34375 0.5 0  0.375 0.5 0  0.40625 0.5 0  0.4375 0.5 0  0.46875 0.5 0  0.5 0.5 0  0.53125 0.5 0  0.5625 0.5 0  0.59375 0.5 0  0.625 0.5 0  0.65625 0.5 0  0.6875 0.5 0  0.71875 0.5 0  0.75 0.5 0  0.78125 0.5 0  0.8125 0.5 0  0.84375 0.5 0  0.875 0.5 0  0.90625 0.5 0  0.9375 0.5 0  0.96875 0.5 0  1 0.5 0  0 0.53125 0  0.03125 0.53125 0  0.0625 0.53125 0  0.09375 0.53125 0  0.125 0.53125 0  0.15625 0.53125 0  0.1875 0.53125 0  0.21875 0.53125 0  0.25 0.53125 0  0.28125 0.53125 0  0.3125 0.53125 0  0.34375 0.53125 0  0.375 0.53125 0  0.40625 0.53125 0  0.4375 0.53125 0  0.46875 0.53125 0  0.5 0.53125 0  0.53125 0.53125 0  0.5625 0.53125 0  0.59375 0.53125 0  0.625 0.53125 0  0.65625 0.53125 0  0.6875 0.53125 0  0.71875 0.53125 0  0.75 0.53125 0  0.78125 0.531
[...]
<PointData  Scalars="f_544"> 
<DataArray  type="Float64"  Name="f_544"  format="ascii">0.0000000000000000e+00  0.0000000000000000e+00  0.0000000000000000e+00  0.0000000000000000e+00  0.0000000000000000e+00  0.0000000000000000e+00  0.0000000000000000e+00  0.0000000000000000e+00  0.0000000000000000e+00  0.0000000000000000e+00  0.0000000000000000e+00  0.0000000000000000e+00  0.0000000000000000e+00  0.0000000000000000e+00  0.0000000000000000e+00  0.0000000000000000e+00  0.0000000000000000e+00  0.0000000000000000e+00  0.0000000000000000e+00  0.0000000000000000e+00  0.0000000000000000e+00  0.0000000000000000e+00  0.0000000000000000e+00  0.0000000000000000e+00  0.0000000000000000e+00  0.0000000000000000e+00  0.0000000000000000e+00  0.0000000000000000e+00  0.0000000000000000e+00  0.0000000000000000e+00  0.0000000000000000e+00  0.0000000000000000e+00  0.0000000000000000e+00  0.0000000000000000e+00  1.2505471653929316e-03  4.7712083291721946e-03  1.0291793610462452e-02  1.7380964952976127e-02  2.5471309311264720e-02  3.3892541313599645e-02  4.1911123651755977e-02  4.8774251708646542e-02  5.3755906556539584e-02  5.6202549659498960e-02  5.5576020321973209e-02  5.1491304649224773e-02  4.3747068337466909e-02  3.2347175382409950e-02  1.7511836098799461e-02  -3.2247839533009127e-04  -2.0514674529992387e-02  -4.2241978663360678e-02  -6.4533368669207988e-02  -8.6312142915336260e-02  -1.0644579273483144e-01  -1.2380094119261190e-01  -1.3730080708982259e-01  -1.4598246548448313e-01  -1.4905111708505955e-01  -1.4592865737221147e-01  -1.3629405975076839e-01  -1.2011346984451049e-01  -9.7658497521803445e-02  -6.9512157253471582e-02  -3.6563852179429090e-02  0.0000000000000000e+00  0.0000000000000000e+00  2.4355638259609580e-03  9.3252730472594605e-03  2.0140224800918056e-02  3.4035289934084917e-02  4.9898242126177314e-02  6.6414842368170399e-02  8.2146523364898347e-02  9.5616647541915831e-02  1.0540083631240076e-01  1.1021661099120987e-01  1.0900756096310624e-01  1.0101746532382536e-01  8.5850232081006422e-02  6.3512165287374953e-02  3.4433896426256154e-02  -5.2971545209647055e-04  -4.0122344351232617e-02  -8.2731133886203873e-02  -1.2645221456841096e-01  -1.6917415292765983e-01  -2.0867573743296447e-01  -2.4273371425576229e-01  -2.6923548862461560e-01  -2.8629143738837504e-01  -2.9234135897678937e-01  -2.8624973265509474e-01  -2.6738487664352345e-01  -2.3567778767403591e-01  -1.9165742089313129e-01  -1.3646044789987394e-01  -7.1815093898064564e-02  0.0000000000000000e+00  0.0000000000000000e+00  3.5137000830806776e-03  1.3495319640979081e-02  2.9178430981366864e-02  4.9337356364889728e-02  7.2358422223987445e-02  9.6334388555230285e-02  1.1917718514807249e-01  1.3874311164363778e-01  1.5296396653690408e-01  1.5997719585780637e-01  1.5824811538591177e-01  1.4667756511030916e-01  1.2468898948381885e-01  9.2289874530781801e-02  5.0103671321915531e-02  -6.3025953749646919e-04  -5.8089600454347579e-02  -1.1993422676226069e-01  -1.8340124209567199e-01  -2.4542605713034768e-01  -3.0278429517677380e-01  -3.5224815715367463e-01  -3.9075000932365334e-01  -4.1554541653040938e-01  -4.2436766426941419e-01  -4.1556601249306174e-01  -3.8822050444582096e-01  -3.4222710029426096e-01  -2.7834818177576448e-01  -1.9822500261660583e-01  -1.0435024745760384e-01  0.0000000000000000e+00  0.0000000000000000e+00  4.4468003987292561e-03  1.7127455494190660e-02  3.7068145679498073e-02  6.2710348035507499e-02  9.2001443244197303e-02  1.2251483259429587e-01  1.5159337239096943e-01  1.7650869175828543e-01  1.9462807826617079e-01  2.0358013829080174e-01  2.0141039100026570e-01  1.8671834180205998e-01  1.5876838808489901e-01  1.1756810242074561e-01  6.3908963011077791e-02  -6.3361098354069751e-04  -7.3742092529712200e-02  -1.5243966259004221e-01  -2.3321107087476700e-01  -3.1215665537664844e-01  -3.8517288425130569e-01  -4.4815131707806771e-01  -4.9718677387966498e-01  -5.2878480826443286e-01  -5.4005834620982052e-01  -5.2890359449925917e-01  -4.9414604037369636e-01  -4.3564852962655409e-01  -3.5437496729064272e-01  -2.5240503491579552e-01  -1.3289730159886565e-01  0.0000000000000000e+00  0.0000000000000000e+00  5.2015632257482658e-03  2.0087060409177172e-02  4.3513237819264167e-02  7.3649092582840317e-02  1.0808232313345226e-01  1.4396049520233173e-01  1.7815964548637492e-01  2.0747158456145701e-01  2.2880012294848590e-01  2.3935588156678203e-01  2.3683929013857868e-01  2.1960183092072141e-01  1.8677653294476707e-01  1.3837012298612139e-01  7.5311031444452545e-02  -5.5044698842194619e-04  -8.6491222925006772e-02  -1.7901267617300967e-01  -2.7398266438911656e-01  -3.6681653540976977e-01  -4.5268934280072570e-01  -5.2676973794650017e-01  -5.8446470578685994e-01  -6.2166349379682118e-01  -6.3496880199890571e-01  -6.2190357824498521e-01  -5.8108259367251502e-01  -5.1233932573943197e-01  -4.1680048794700342e-01  -2.9690272255630751e-01  -1.5634839636293624e-01  0.0000000000000000e+00  0.0000000000000000e+00  5.7509739688778993e-03  2.2264258268763652e-02  4.8271519388285229e-02  8.1740008932905325e-02  1.1999074513812949e-01  1.5985528497229806e-01  1.9786300442164359e-01  2.3044918064674499e-01  2.5417301555727168e-01  2.6593411386310850e-01  2.6317586327166409e-01  2.4406466744277766e-01  2.0763503424146990e-01  1.5389207750265999e-01  8.3864980752607135e-02  -3.9269400737859097e-04  -9.5857397337494696e-02  -1.9864353798933715e-01  -3.0416115574807567e-01  -4.0731694707916610e-01  -5.0274997969634749e-01  -5.8509151231844436e-01  -6.4923688205878094e-01  -6.9061651025184823e-01  -7.0545276002815793e-01  -6.9098968051626097e-01  -6.4568358898360800e-01  -5.6934393948972162e-01  -4.6321594128982896e-01  -3.2999883314793904e-01  -1.7379648615444218e-01  0.0000000000000000e+00  0.0000000000000000e+00  6.0754643342950448e-03  2.3578375412142638e-02  5.1164390532472098e-02  8.6677422771643003e-02  1.2727499469438011e-01  1.6959457766085057e-01  2.0995234114729286e-01  2.4456401149210902e-01  2.6977631298047849e-01  2.8229679774665550e-01  2.7940980011970046e-01  2.5916678357756651e-01  2.2054046386131390e-01  1.6353374214941296e-01  8.9236594049134463e-02  -1.7346204458546272e-04  -1.0148896361374903e-01  -2.1058696029553947e-01  -3.2259627064133262e-01  -4.3211077751557203e-01  -5.3343956858895369e-01  -6.2088268857222262e-01  -6.8901972427536773e-01  -7.3299747306776708e-01  -7.4880260508653929e-01  -7.3350554627618325e-01  -6.8546277946640688e-01  -6.0446634998247384e-01  -4.9183150748338789e-01  -3.5041602874799088e-01  -1.8456774185659491e-01  0.0000000000000000e+00  0.0000000000000000e+00  6.1637600022296625e-03  2.3981227052533707e-02  5.2083969627315221e-02  8.8275645910738526e-02  1.2965969872126731e-01  1.7280885838722218e-01  2.1396771498638970e-01  2.4927786139469299e-01  2.7501385671200262e-01  2.8781757866124902e-01  2.8491845979368963e-01  2.6432764379220441e-01  2.2499523399223431e-01  1.6692148766590073e-01  9.1214961833403552e-02  9.3141954562211455e-05  -1.0317613198627350e-01  -2.1439121578666298e-01  -3.2858705760651119e-01  -4.4025255224680099e-01  -5.4358548398852302e-01  -6.3277360749538125e-01  -7.0228883843745138e-01  -7.4718053369906023e-01  -7.6335349170895550e-01  -7.4781662420438511e-01  -6.9888923866137376e-01  -6.1635349211893775e-01  -5.0154376962768921e-01  -3.5736641609804187e-01  -1.8824630105663157e-01  0.0000000000000000e+00  0.0000000000000000e+00  6.0133892216008003e-03  2.3459115532600921e-02  5.0997448836998520e-02  8.6476373558708158e-02  1.2705670660819562e-01  1.6937824093488943e-01  2.0975834939545593e-01  2.4441275624409758e-01  2.6968695427325956e-01  2.8228607613731643e-01  2.7949095440633531e-01  2.5934863429912791e-01  2.2082671553924030e-01  1.6392254752595836e-01  8.9720411773570388e-02  3.9230183983744515e-04  -1.0085935980813554e-01  -2.0991587282318133e-01  -3.2190923428973556e-01  -4.3143518844259598e-01  -5.3280316685927653e-01  -6.2031189223759420e-01  -6.8853786949988705e-01  -7.3262301315083278e-01  -7.4854731514782702e-01  -7.3337277041633286e-01  -6.8544574518048162e-01  -6.0454656422699071e-01  -4.9197724641403545e-01  -3.5058094699795550e-01  -1.8468966309097889e-01  0.0000000000000000e+00  0.0000000000000000e+00  5.6308368950430060e-03  2.2033471651933680e-02  4.7948519314066511e-02  8.1351129695957966e-02  1.1956871143363945e-01  1.5943732424107482e-01  1.9748867697941516e-01  2.3015804055255987e-01  2.5400222509124432e-01  2.6591613848159512e-01  2.6333637178376457e-01  2.4442075398530197e-01  2.0819386480178634e-01  1.5465004489491382e-01  8.4807429011690444e-02  7.0885926702934595e-04  -9.4631893843914891e-02  -1.9733748515561522e-01  -3.0282412217079374e-01  -4.0600211491476484e-01  -5.0151120311197861e-01  -5.8398008951870539e-01  -6.4829814688526310e-01  -6.8988634573591900e-01  -7.0495412347045994e-01  -6.9072920823625206e-01  -6.4564832170908892e-01  -5.6949818323375578e-01  -4.6349826679581624e-01  -3.3031924046673578e-01  -1.7403384258793250e-01  0.0000000000000000e+00  0.0000000000000000e+00  5.0313414982329843e-03  1.9760120783679357e-02  4.3055820410157541e-02  7.3098678034318645e-02  1.0748548544411828e-01  1.4337021370289368e-01  1.7763221504943091e-01  2.0706328494990575e-01  2.2856382232151193e-01  2.3933775484671094e-01  2.3707582990126422e-01  2.2011731681135993e-01  1.8758110589525556e-01  1.3945858362899133e-01  7.6662449390722739e-02  1.0277367219895400e-03  -8.4736385242118892e-02  -1.7714303373890677e-01  -2.7206884578653057e-01  -3.6493431528693149e-01  -4.5091546014414208e-01  -5.2517731070269158e-01  -5.8311839363732598e-01  -6.2061455499187568e-01  -6.3425016985559146e-01  -6.2152504774782258e-01  -5.8102616064670709e-01  -5.1255466786090143e-01  -4.1720053728126838e-01  -2.9735929236798309e-01  -1.5668795530524085e-01  0.0000000000000000e+00  0.0000000000000000e+00  4.2383452047125552e-03  1.6727206987026282e-02  3.6508479687322515e-02  6.2037507076693685e-02  9.1272884845743585e-02  1.2179590983560808e-01  1.5095351853505959e-01  1.7601730780244909e-01  1.9435033966941143e-01  2.0357294412669447e-01  2.0171867499774676e-01  1.8737195029093340e-01  1.5977970542272082e-01  1.1893057119406079e-01  6.5596605781690909e-02  1.3343926115338192e-03  -7.1555717872158184e-02  -1.5011138596467141e-01  -2.3082818876254563e-01  -3.0981280992627913e-01  -3.8296291016090611e-01  -4.4616559800252625e-01  -4.9550529806518495e-01  -5.2747110518517415e-01  -5.3915345838841533e-01  -5.2842018851727490e-01  -4.9406268657068542e-01  -4.3590408352420679e-01  -3.5486288304974822e-01  -2.5296738330573720e-01  -1.3331838330298673e-01  0.0000000000000000e+00  0.0000000000000000e+00  3.2826203562748148e-03  1.3051858814063762e-02  2.8558920754422932e-02  4.8593685113514445e-02  7.1555054544234886e-02  9.5544634528072311e-02  1.1847891270558668e-01  1.3821412575701683e-01  1.5267729851499140e-01  1.5999655388065839e-01  1.5862374307775801e-01  1.4744273863153093e-01  1.2585735603822065e-01  9.3853797619261978e-02  5.2033702348043553e-02  1.6152846170652689e-03  -5.5598411097471281e-02  -1.1728349549769532e-01  -1.8068920064238692e-01  -2.4275803215132571e-01  -3.0026692922157849e-01  -3.4998309114729648e-01  -3.8882724441251426e-01  -4.1403656452644000e-01  -4.2331926359302657e-01  -4.1499302415475858e-01  -3.8810000141691486e-01  -3.4249201174492472e-01  -2.7888074115578737e-01  -1.9884929400594267e-01  -1.0482309664407682e-01  0.0000000000000000e+00  0.0000000000000000e+00  2.2011074038976982e-03  8.8757279583586961e-03  1.9513219651615073e-02  3.3284557314776031e-02  4.9090522935740927e-02  6.5626011376499954e-02  8.1457137268731106e-02  9.5107148307541300e-02  1.0514666292166561e-01  1.1028348079622932e-01  1.0944717727190408e-01  1.0186389074420288e-01  8.7117138309655492e-02  6.5191130790915472e-02  3.6493875668405971e-02  1.8583184200350736e-03  -3.7479164775659872e-02  -7.9922496277290880e-02  -1.2358030852696479e-01  -1.6634843884243161e-01  -2.0600695330640123e-01  -2.4032734142643417e-01  -2.6718491037726499e-01  -2.8467101793047134e-01  -2.9119963900300183e-01  -2.8560287319170391e-01  -2.6721036953314847e-01  -2.3590825784729635e-01  -1.9217401004392215e-01  -1.3708467574757022e-01  -7.2297101390765867e-02  0.0000000000000000e+00  0.0000000000000000e+00  1.0355101433454734e-03  4.3595744821893516e-03  9.7193836618388440e-03  1.6698915521047554e-02  2.4743110117446943e-02  3.3190327982482157e-02  4.1311419423243144e-02  4.8353381622224877e-02  5.3585327126674472e-02  5.6344344717173304e-02  5.6078809167279538e-02  5.2386792082119257e-02  4.5047438231403517e-02  3.4043491551598491e-02  1.9573568048684549e-02  2.0532605855712919e-03  -1.7895299383382079e-02  -3.9465230617530760e-02  -6.1697280618331872e-02  -8.3521490819731439e-02  -1.0380635512529517e-01  -1.2141326412131982e-01  -1.3525370958999505e-01  -1.4434651935571075e-01  -1.4787231266403744e-01  -1.4522241717439779e-01  -1.3603967040411269e-01  -1.2024883521346132e-01  -9.8074778927714851e-02  -7.0047081926955773e-02  -3.6990332031091915e-02  0.0000000000000000e+00  0.0000000000000000e+00  -1.6929691318615274e-04  -3.2289163410603380e-04  -4.4599463025267591e-04  -5.2559421488314198e-04  -5.5122907929386475e-04  -5.1562744799733330e-04  -4.1517859793775816e-04  -2.5021057504909938e-04  -2.5057370751864997e-05  2.5209093264520001e-04  5.6955090501526579e-04  9.1270676732736289e-04  1.2647451705255959e-03  1.6075305546212806e-03  1.9225806909551433e-03  2.1920967875318307e-03  2.3999994572874977e-03  2.5329212136682329e-03  2.5811079724291607e-03  2.5391863306740616e-03  2.4067599822589418e-03  2.1888073464973686e-03  1.8958628732569736e-03  1.5439762584554453e-03  1.1544563301302928e-03  7.5341917526573689e-04  3.7117254138967188e-04  4.1480117374289246e-05  -1.9924054079910059e-04  -3.1272434616921234e-04  -2.5960090290766722e-04  0.0000000000000000e+00  0.0000000000000000e+00  -1.3669872503760325e-03  -4.9916748251465195e-03  -1.0592193532781537e-02  -1.7726956100149925e-02  -2.5820350709360028e-02  -3.4196455530713113e-02  -4.2119034692575053e-02  -4.8835741022323430e-02  -5.3624216235456684e-02  -5.5837656828366000e-02  -5.4947410355607504e-02  -5.0580283061213850e-02  -4.2548471454437693e-02  -3.0870367312424370e-02  -1.5780912799136518e-02  2.2693195622918980e-03  2.2626601215203896e-02  4.4457786624138948e-02  6.6784462780697967e-02  8.8526121070984481e-02  1.0855048614257366e-01  1.2572873920908770e-01  1.3899307601279506e-01  1.4739385825479515e-01  1.5015356218475528e-01  1.4671480418749969e-01  1.3677992955887311e-01  1.2033998019853377e-01  9.7691296962326049e-02  6.9438544870578642e-02  3.6483552021583390e-02  0.0000000000000000e+00  0.0000000000000000e+00  -2.5115607563650877e-03  -9.4674073904601978e-03  -2.0329372216826569e-02  -3.4244218987649323e-02  -5.0093273274700249e-02  -6.6557919350412789e-02  -8.2197585399151007e-02  -9.5536173502412461e-02  -1.0515242117502537e-01  -1.0976943088705431e-01  -1.0833858642098616e-01  -1.0011329258946425e-01  -8.4708419376975666e-02  -6.2141983745083978e-02  -3.2856433154737630e-02  2.2821333476969689e-03  4.2007402507423172e-02  8.4698423718714083e-02  1.2844569692676125e-01  1.7113509169944949e-01  2.1054597491068064e-01  2.4445913664515195e-01  2.7076951065689370e-01  2.8759831818848519e-01  2.9339914345933765e-01  2.8705258583567744e-01  2.6794452616508008e-01  2.3602367972429461e-01  1.9183496122551483e-01  1.3652622343397175e-01  7.1827106554505124e-02  0.0000000000000000e+00  0.0000000000000000e+00  -3.5591133753183546e-03  -1.3578246171087409e-02  -2.9283557326418696e-02  -4.9442902866951001e-02  -7.2437499384089679e-02  -9.6356689084319075e-02  -1.1911091930104563e-01  -1.3855707927582400e-01  -1.5262965045150573e-01  -1.5947075795198590e-01  -1.5755218002264942e-01  -1.4578268300664576e-01  -1.2359468982847843e-01  -9.1005232405822631e-02  -4.8647340974767320e-02  2.2305685263585610e-03  5.9798198665108777e-02  1.2170903761750142e-01  1.8519584881313508e-01  2.4719211422650100e-01  3.0447419051853264e-01  3.5381778918468443e-01  3.9216152534071491e-01  4.1676974044641968e-01  4.2538662311886044e-01  4.1637384439620184e-01  3.8882448749344928e-01  3.4264696828763180e-01  2.7861387608284194e-01  1.9837216414707903e-01  1.0441282270855168e-01  0.0000000000000000e+00  0.0000000000000000e+00  -4.4695301081231105e-03  -1.7166487634223571e-02  -3.7111030611853134e-02  -6.2739401485937416e-02  -9.1994873705505159e-02  -1.2244814641518861e-01  -1.5144097880827137e-01  -1.7624561825822033e-01  -1.9423169933622539e-01  -2.0303181822089764e-01  -2.0069694409859073e-01  -1.8583322114093101e-01  -1.5771252639515471e-01  -1.1635034546624377e-01  -6.2546056008204412e-02  2.1175004864184689e-03  7.5316307372025271e-02  1.5406841124978052e-01  2.3485514743498223e-01  3.1377544292879184e-01  3.8672653901388881e-01  4.4960301145486947e-01  4.9850485996911109e-01  5.2994474826338533e-01  5.4104424130728235e-01  5.2970912703475692e-01  4.9477462314640436e-01  4.3611243219669588e-01  3.5469317466367067e-01  2.5259963594587947e-01  1.3298842841659864e-01  0.0000000000000000e+00  0.0000000000000000e+00  -5.2080366307287341e-03  -2.0094647797438962e-02  -4.3511565612753968e-02  -7.3623444489522114e-02  -1.0801460054656231e-01  -1.4383041307867281e-01  -1.7794609668230169e-01  -2.0715409544202387e-01  -2.2836031688365813e-01  -2.3877886502524759e-01  -2.3611487862617075e-01  -2.1872553897160960e-01  -1.8575026345627427e-01  -1.3720250598681735e-01  -7.4017380237108854e-02  1.9485741663985419e-03  8.7966845920168332e-02  1.8053456855460967e-01  2.7551682770138769e-01  3.6832789720003584e-01  4.5414358457962206e-01  5.2813514257124128e-01  5.8571389975194454e-01  6.2277494868920236e-01  6.3592795100600030e-01  6.2270339861448509e-01  5.8172350661131589e-01  5.1282827788234908e-01  4.1714911953297684e-01  2.9712463095828301e-01  1.5645572735389651e-01  0.0000000000000000e+00  0.0000000000000000e+00  -5.7465504917594184e-03  -2.2250774483567569e-02  -4.8240006335444958e-02  -8.1677757904043927e-02  -1.1988215454516012e-01  -1.5968291404725504e-01  -1.9760877403148316e-01  -2.3009565253751882e-01  -2.5370467588966955e-01  -2.6533858534392885e-01  -2.6244497261505217e-01  -2.4319530130749512e-01  -2.0662972692651013e-01  -1.5275928715611670e-01  -8.2619027103599391e-02  1.7320390140946986e-03  9.7265654916403252e-02  2.0009257254855115e-01  3.0562047826486533e-01  4.0875520159729889e-01  5.0413652563525801e-01  5.8639800069648862e-01  6.5043871231270367e-01  6.9169404685256686e-01  7.0639218569643791e-01  6.9178336751372449e-01  6.4632988545454817e-01  5.6984630096808653e-01  4.6358139971609336e-01  3.3023590315067658e-01  1.7391277489990173e-01  0.0000000000000000e+00  0.0000000000000000e+00  -6.0647808058234718e-03  -2.3552789412509625e-02  -5.1115745341030416e-02  -8.6594170393772901e-02  -1.2714297686469023e-01  -1.6939799706790201e-01  -2.0967486742584801e-01  -2.4418995823231612e-01  -2.6929181700461086e-01  -2.8169093053674260e-01  -2.7867554365974223e-01  -2.5830180895660082e-01  -2.1954766057163633e-01  -1.6242145872616001e-01  -8.8018566014705757e-02  1.4785036652646979e-03  1.0285799136925616e-01  2.1199362605552513e-01  3.2401210831895538e-01  4.3350656534175086e-01  5.3478676766898192e-01  6.2215486126752362e-01  6.9019382634797055e-01  7.3405490865687251e-01  7.4972993515451969e-01  7.3429475175718140e-01  6.8611100393712132e-01  6.0497508885596019e-01  4.9220527812284365e-01  3.5066065318450823e-01  1.8468849584498601e-01  0.0000000000000000e+00  0.0000000000000000e+00  -6.1510353646208639e-03  -2.3951695559702023e-02  -5.2029740292848313e-02  -8.8185550449520977e-02  -1.2952005096705738e-01  -1.7260439849143763e-01  -2.1368268434362650e-01  -2.4889714616217562e-01  -2.7452413294476091e-01  -2.8720839077631821e-01  -2.8418316644310287e-01  -2.6346417119457716e-01  -2.2400658619218455e-01  -1.6581597564333556e-01  -9.0006128388628148e-02  1.2006237318211536e-03  1.0453227804703036e-01  2.1578397883381448e-01  3.2998863221489744e-01  4.4163441227651862e-01  5.4491977384830803e-01  6.34034508745