<?xml version="1.0"?>
<VTKFile type="UnstructuredGrid"  version="0.1"  >
<UnstructuredGrid>
<Piece  NumberOfPoints="729" NumberOfCells="3072">
<Points>
<DataArray  type="Float64"  NumberOfComponents="3"  format="ascii">0 0 0  0.125 0 0  0.25 0 0  0.375 0 0  0.5 0 0  0.625 0 0  0.75 0 0  0.875 0 0  1 0 0  0 0.125 0  0.125 0.125 0  0.25 0.125 0  0.375 0.125 0  0.5 0.125 0  0.625 0.125 0  0.75 0.125 0  0.875 0.125 0  1 0.125 0  0 0.25 0  0.125 0.25 0  0.25 0.25 0  0.375 0.25 0  0.5 0.25 0  0.625 0.25 0  0.75 0.25 0  0.875 0.25 0  1 0.25 0  0 0.375 0  0.125 0.375 0  0.25 0.375 0  0.375 0.375 0  0.5 0.375 0  0.625 0.375 0  0.75 0.375 0  0.875 0.375 0  1 0.375 0  0 0.5 0  0.125 0.5 0  0.25 0.5 0  0.375 0.5 0  0.5 0.5 0  0.625 0.5 0  0.75 0.5 0  0.875 0.5 0  1 0.5 0  0 0.625 0  0.125 0.625 0  0.25 0.625 0  0.375 0.625 0  0.5 0.625 0  0.625 0.625 0  0.75 0.625 0  0.875 0.625 0  1 0.625 0  0 0.75 0  0.125 0.75 0  0.25 0.75 0  0.375 0.75 0  0.5 0.75 0  0.625 0.75 0  0.75 0.75 0  0.875 0.75 0  1 0.75 0  0 0.875 0  0.125 0.875 0  0.25 0.875 0  0.375 0.875 0  0.5 0.875 0  0.625 0.875 0  0.75 0.875 0  0.875 0.875 0  1 0.875 0  0 1 0  0.125 1 0  0.25 1 0  0.375 1 0  0.5 1 0  0.625 1 0  0.75 1 0  0.875 1 0  1 1 0  0 0 0.125  0.125 0 0.125  0.25 0 0.125  0.375 0 0.125  0.5 0 0.125  0.625 0 0.125  0.75 0 0.125  0.875 0 0.125  1 0 0.125  0 0.125 0.125  0.125 0.125 0.125  0.25 0.125 0.125  0.375 0.125 0.125  0.5 0.125 0.125  0.625 0.125 0.125  0.75 0.125 0.125  0.875 0.125 0.125  1 0.125 0.125  0 0.25 0.125  0.125 0.25 0.125  0.25 0.25 0.125  0.375 0.25 0.125  0.5 0.25 0.125  0.625 0.25 0.125  0.75 0.25 0.125  0.875 0.25 0.125  1 0.25 0.125  0 0.375 0.125  0.125 0.375 0.125  0.25 0.375 0.125  0.375 0.375 0.125  0.5 0.375 0.125  0.625 0.375 0.125  0.75 0.375 0.125  0.875 0.375 0.125  1 0.375 0.125  0 0.5 0.125  0.125 0.5 0.125  0.25 0.5 0.125  0.375 0.5 0.125  0.5 0.5 0.125  0.625 0.5 0.125  0.75 0.5 0.125  0.875 0.5 0.125  1 0.5 0.125  0 0.625 0.125  0.125 0.625 0.125  0.25 0.625 0.125  0.375 0.625 0.125  0.5 0.625 0.125  0.625 0.625 0.125  0.75 0.625 0.125  0.875 0.625 0.125  1 0.625 0.125  0 0.75 0.125  0.125 0.75 0.125  0.25 0.75 0.125  0.375 0.75 0.125  0.5 0.75 0.125  0.625 0.75 0.125  0.75 0.75 0.125  0.875 0.75 0.125  1 0.75 0.125  0 0.875 0.125  0.125 0.875 0.125  0.25 0.875 0.125  0.375 0.875 0.125  0.5 0.875 0.125  0.625 0.875 0.125  0.75 0.875 0.125  0.875 0.875 0.125  1 0.875 0.125  0 1 0.125  0.125 1 0.125  0.25 1 0.125  0.375 1 0.125  0.5 1 0.125  0.625 1 0.125  0.75 1 0.125  0.875 1 0.125  1 1 0.125  0 0 0.25  0.125 0 0.25  0.25 0 0.25  0.375 0 0.25  0.5 0 0.25  0.625 0 0.25  0.75 0 0.25  0.875 0 0.25  1 0 0.25  0 0.125 0.25  0.125 0.125 0.25  0.25 0.125 0.25  0.375 0.125 0.25  0.5 0.125 0.25  0.625 0.125 0.25  0.75 0.125 0.25  0.875 0.125 0.25  1 0.125 0.25  0 0.25 0.25  0.125 0.25 0.25  0.25 0.25 0.25  0.375 0.25 0.25  0.5 0.25 0.25  0.625 0.25 0.25  0.75 0.25 0.25  0.875 0.25 0.25  1 0.25 0.25  0 0.375 0.25  0.125 0.375 0.25  0.25 0.375 0.25  0.375 0.375 0.25  0.5 0.375 0.25  0.625 0.375 0.25  0.75 0.375 0.25  0.875 0.375 0.25  1 0.375 0.25  0 0.5 0.25  0.125 0.5 0.25  0.25 0.5 0.25  0.375 0.5 0.25  0.5 0.5 0.25  0.625 0.5 0.25  0.75 0.5 0.25  0.875 0.5 0.25  1 0.5 0.25  0 0.625 0.25  0.125 0.625 0.25  0.25 0.625 0.25  0.375 0.625 0.25  0.5 0.625 0.25  0.625 0.625 0.25  0.75 0.625 0.25  0.875 0.625 0.25  1 0.625 0.25  0 0.75 0.25  0.125 0.75 0.25  0.25 0.75 0.25  0.375 0.75 0.25  0.5 0.75 0.25  0.625 0.75 0.25  0.75 0.75 0.25  0.875 0.75 0.25  1 0.75 0.25  0 0.875 0.25  0.125 0.875 0.25  0.25 0.875 0.25  0.375 0.875 0.25  0.5 0.875 0.25  0.625 0.875 0.25  0.75 0.875 0.25  0.875 0.875 0.25  1 0.875 0.25  0 1 0.25  0.125 1 0.25  0.25 1 0.25  0.375 1 0.25  0.5 1 0.25  0.625 1 0.25  0.75 1 0.25  0.875 1 0.25  1 1 0.25  0 0 0.375  0.125 0 0.375  0.25 0 0.375  0.375 0 0.375  0.5 0 0.375  0.625 0 0.375  0.75 0 0.375  0.875 0 0.375  1 0 0.375  0 0.125 0.375  0.125 0.125 0.375  0.25 0.125 0.375  0.375 0.125 0.375  0.5 0.125 0.375  0.625 0.125 0.375  0.75 0.125 0.375  0.875 0.125 0.375  1 0.125 0.375  0 0.25 0.375  0.125 0.25 0.375  0.25 0.25 0.375  0.375 0.25 0.375  0.5 0.25 0.375  0.625 0.25 0.375  0.75 0.25 0.375  0.875 0.25 0.375  1 0.25 0.375  0 0.375 0.375  0.125 0.375 0.375  0.25 0.375 0.375  0.375 0.375 0.375  0.5 0.375 0.375  0.625 0.375 0.375  0.75 0.375 0.375  0.875 0.375 0.375  1 0.375 0.375  0 0.5 0.375  0.125 0.5 0.375  0.25 0.5 0.375  0.375 0.5 0.375  0.5 0.5 0.375  0.625 0.5 0.375  0.75 0.5 0.375  0.875 0.5 0.375  1 0.5 0.375  0 0.625 0.375  0.125 0.625 0.375  0.25 0.625 0.375  0.375 0.625 0.375  0.5 0.625 0.375  0.625 0.625 0.375  0.75 0.625 0.375  0.875 0.625 0.375  1 0.625 0.375  0 0.75 0.375  0.125 0.75 0.375  0.25 0.75 0.375  0.375 0.75 0.375  0.5 0.75 0.375  0.625 0.75 0.375  0.75 0.75 0.375  0.875 0.75 0.375  1 0.75 0.375  0 0.875 0.375  0.125 0.875 0.375  0.25 0.875 0.375  0.375 0.875 0.375  0.5 0.875 0.375  0.625 0.875 0.375  0.75 0.875 0.375  0.875 0.875 0.375  1 0.875 0.375  0 1 0.375  0.125 1 0.375  0.25 1 0.375  0.375 1 0.375  0.5 1 0.375  0.625 1 0.375  0.75 1 0.375  0.875 1 0.375  1 1 0.375  0 0 0.5  0.125 0 0.5  0.25 0 0.5  0.375 0 0.5  0.5 0 0.5  0.625 0 0.5  0.75 0 0.5  0.875 0 0.5  1 0 0.5  0 0.125 0.5  0.125 0.125 0.5  0.25 0.125 0.5  0.375 0.125 0.5  0.5 0.125 0.5  0.625 0.125 0.5  0.75 0.125 0.5  0.875 0.125 0.5  1 0.125 0.5  0 0.25 0.5  0.125 0.25 0.5  0.25 0.25 0.5  0.375 0.25 0.5  0.5 0.25 0.5  0.625 0.25 0.5  0.75 0.25 0.5  0.875 0.25 0.5  1 0.25 0.5  0 0.375 0.5  0.125 0.375 0.5  0.25 0.375 0.5  0.375 0.375 0.5  0.5 0.375 0.5  0.625 0.375 0.5  0.75 0.375 0.5  0.875 0.375 0.5  1 0.375 0.5  0 0.5 0.5  0.125 0.5 0.5  0.25 0.5 0.5  0.375 0.5 0.5  0.5 0.5 0.5  0.625 0.5 0.5  0.75 0.5 0.5  0.875 0.5 0.5  1 0.5 0.5  0 0.625 0.5  0.125 0.625 0.5  0.25 0.625 0.5  0.375 0.625 0.5  0.5 0.625 0.5  0.625 0.625 0.5  0.75 0.625 0.5  0.875 0.625 0.5  1 0.625 0.5  0 0.75 0.5  0.125 0.75 0.5  0.25 0.75 0.5  0.375 0.75 0.5  0.5 0.75 0.5  0.625 0.75 0.5  0.75 0.75 0.5  0.875 0.75 0.5  1 0.75 0.5  0 0.875 0.5  0.125 0.875 0.5  0.25 0.875 0.5  0.375 0.875 0.5  0.5 0.875 0.5  0.625 0.875 0.5  0.75 0.875 0.5  0.875 0.875 0.5  1 0.875 0.5  0 1 0.5  0.125 1 0.5  0.25 1 0.5  0.375 1 0.5  0.5 1 0.5  0.625 1 0.5  0.75 1 0.5  0.875 1 0.5  1 1 0.5  0 0 0.625  0.125 0 0.625  0.25 0 0.625  0.375 0 0.625  0.5 0 0.625  0.625 0 0.625  0.75 0 0.625  0.875 0 0.625  1 0 0.625  0 0.125 0.625  0.125 0.125 0.625  0.25 0.125 0.625  0.375 0.125 0.625  0.5 0.125 0.625  0.625 0.125 0.625  0.75 0.125 0.625  0.875 0.125 0.625  1 0.125 0.625  0 0.25 0.625  0.125 0.25 0.625  0.25 0.25 0.625  0.375 0.25 0.625  0.5 0.25 0.625  0.625 0.25 0.625  0.75 0.25 0.625  0.875 0.25 0.625  1 0.25 0.625  0 0.375 0.625  0.125 0.375 0.625  0.25 0.375 0.625  0.375 0.375 0.625  0.5 0.375 0.625  0.625 0.375 0.625  0.75 0.375 0.625  0.875 0.375 0.625  1 0.375 0.625  0 0.5 0.625  0.125 0.5 0.625  0.25 0.5 0.625  0.375 0.5 0.625  0.5 0.5 0.625  0.625 0.5 0.625  0.75 0.5 0.625  0.875 0.5 0.625  1 0.5 0.625  0 0.625 0.625  0.125 0.625 0.625  0.25 0.625 0.625  0.375 0.625 0.625  0.5 0.625 0.625  0.625 0.625 0.625  0.75 0.625 0.625  0.875 0.625 0.625  1 0.625 0.625  0 0.75 0.625  0.125 0.75 0.625  0.25 0.75 0.625  0.375 0.75 0.625  0.5 0.75 0.625  0.625 0.75 0.625  0.75 0.75 0.625  0.875 0.75 0.625  1 0.75 0.625  0 0.875 0.625  0.125 0.875 0.625  0.25 0.875 0.625  0.375 0.875 0.625  0.5 0.875 0.625  0.625 0.875 0.625  0.75 0.875 0.625  0.875 0.875 0.625  1 0.875 0.625  0 1 0.625  0.125 1 0.625  0.25 1 0.625  0.375 1 0.625  0.5 1 0.625  0.625 1 0.625  0.75 1 0.625  0.875 1 0.625  1 1 0.625  0 0 0.75  0.125 0 0.75  0.25 0 0.75  0.375 0 0.75  0.5 0 0.75  0.625 0 0.75  0.75 0 0.75  0.875 0 0.75  1 0 0.75  0 0.125 0.75  0.125 0.125 0.75  0.25 0.125 0.75  0.375 0.125 0.75  0.5 0.125 0.75  0.625 0.125 0.75  0.75 0.125 0.75  0.875 0.125 0.75  1 0.125 0.75  0 0.25 0.75  0.125 0.25 0.75  0.25 0.25 0.75  0.375 0.25 0.75  0.5 0.25 0.75  0.625 0.25 0.75  0.75 0.25 0.75  0.875 0.25 0.75  1 0.25 0.75  0 0.375 0.75  0.125 0.375 0.75  0.25 0.375 0.75  0.375 0.375 0.75  0.5 0.375 0.75  0.625 0.375 0.75  0.75 0.375 0.75  0.875 0.375 0.75  1 0.375 0.75  0 0.5 0.75  0.125 0.5 0.75  0.25 0.5 0.75  0.375 0.5 0.75  0.5 0.5 0.75  0.625 0.5 0.75  0.75 0.5 0.75  0.875 0.5 0.75  1 0.5 0.75  0 0.625 0.75  0.125 0.625 0.75  0.25 0.625 0.75  0.375 0.625 0.75  0.5 0.625 0.75  0.625 0.625 0.75  0.75 0.625 0.75  0.875 0.625 0.75  1 0.625 0.75  0 0.75 0.75  0.125 0.75 0.75  0.25 0.75 0.75  0.375 0.75 0.75  0.5 0.75 0.75  0.625 0.75 0.75  0.75 0.75 0.75  0.875 0.75 0.75  1 0.75 0.75  0 0.875 0.75  0.125 0.875 0.75  0.25 0.875 0.75  0.375 0.875 0.75  0.5 0.875 0.75  0.625 0.875 0.75  0.75 0.875 0.75  0.875 0.875 0.75  1 0.875 0.75  0 1 0.75  0.125 1 0.75  0.25 1 0.75  0.375 1 0.75  0.5 1 0.75  0.625 1 0.75  0.75 1 0.75  0.875 1 0.75  1 1 0.75  0 0 0.875  0.125 0 0.875  0.25 0 0.875  0.375 0 0.875  0.5 0 0.875  0.625 0 0.875  0.75 0 0.875  0.875 0 0.875  1 0 0.875  0 0.125 0.875  0.125 0.125 0.875  0.25 0.125 0.875  0.375 0.125 0.875  0.5 0.125 0.875  0.625 0.125 0.875  0.75 0.125 0.875  0.875 0.125 0.875  1 0.125 0.875  0 0.25 0.875  0.125 0.25 0.875  0.25 0.25 0.875  0.375 0.25 0.875  0.5 0.25 0.875  0.625 0.25 0.875  0.75 0.25 0.875  0.875 0.25 0.875  1 0.25 0.875  0 0.375 0.875  0.125 0.375 0.875  0.25 0.375 0.875  0.375 0.375 0.875  0.5 0.375 0.875  0.625 0.375 0.875  0.75 0.375 0.875  0.875 0.375 0.875  1 0.375 0.875  0 0.5 0.875  0.125 0.5 0.875  0.25 0.5 0.875  0.375 0.5 0.875  0.5 0.5 0.875  0.625 0.5 0.875  0.75 0.5 0.875  0.875 0.5 0.875  1 0.5 0.875  0 0.625 0.875  0.125 0.625 0.875  0.25 0.625 0.875  0.375 0.625 0.875  0.5 0.625 0.875  0.625 0.625 0.875  0.75 0.625 0.875  0.875 0.625 0.875  1 0.625 0.875  0 0.75 0.875  0.125 0.75 0.875  0.25 0.75 0.875  0.375 0.75 0.875  0.5 0.75 0.875  0.625 0.75 0.875  0.75 0.75 0.875  0.875 0.75 0.875  1 0.75 0.875  0 0.875 0.875  0.125 0.875 0.875  0.25 0.875 0.875  0.375 0.875 0.875  0.5 0.875 0.875  0.625 0.875 0.875  0.75 0.875 0.875  0.
[...]
<PointData  Scalars="f_139"> 
<DataArray  type="Float64"  Name="f_139"  format="ascii">0.0000000000000000e+00  0.0000000000000000e+00  0.0000000000000000e+00  0.0000000000000000e+00  0.0000000000000000e+00  0.0000000000000000e+00  0.0000000000000000e+00  0.0000000000000000e+00  0.0000000000000000e+00  0.0000000000000000e+00  0.0000000000000000e+00  0.0000000000000000e+00  0.0000000000000000e+00  0.0000000000000000e+00  0.0000000000000000e+00  0.0000000000000000e+00  0.0000000000000000e+00  0.0000000000000000e+00  0.0000000000000000e+00  0.0000000000000000e+00  0.0000000000000000e+00  0.0000000000000000e+00  0.0000000000000000e+00  0.0000000000000000e+00  0.0000000000000000e+00  0.0000000000000000e+00  0.0000000000000000e+00  0.0000000000000000e+00  0.0000000000000000e+00  0.0000000000000000e+00  0.0000000000000000e+00  0.0000000000000000e+00  0.0000000000000000e+00  0.0000000000000000e+00  0.0000000000000000e+00  0.0000000000000000e+00  0.0000000000000000e+00  0.0000000000000000e+00  0.0000000000000000e+00  0.0000000000000000e+00  0.0000000000000000e+00  0.0000000000000000e+00  0.0000000000000000e+00  0.0000000000000000e+00  0.0000000000000000e+00  0.0000000000000000e+00  0.0000000000000000e+00  0.0000000000000000e+00  0.0000000000000000e+00  0.0000000000000000e+00  0.0000000000000000e+00  0.0000000000000000e+00  0.0000000000000000e+00  0.0000000000000000e+00  0.0000000000000000e+00  0.0000000000000000e+00  0.0000000000000000e+00  0.0000000000000000e+00  0.0000000000000000e+00  0.0000000000000000e+00  0.0000000000000000e+00  0.0000000000000000e+00  0.0000000000000000e+00  0.0000000000000000e+00  0.0000000000000000e+00  0.0000000000000000e+00  0.0000000000000000e+00  0.0000000000000000e+00  0.0000000000000000e+00  0.0000000000000000e+00  0.0000000000000000e+00  0.0000000000000000e+00  0.0000000000000000e+00  0.0000000000000000e+00  0.0000000000000000e+00  0.0000000000000000e+00  0.0000000000000000e+00  0.0000000000000000e+00  0.0000000000000000e+00  0.0000000000000000e+00  0.0000000000000000e+00  0.0000000000000000e+00  0.0000000000000000e+00  0.0000000000000000e+00  0.0000000000000000e+00  0.0000000000000000e+00  0.0000000000000000e+00  0.0000000000000000e+00  0.0000000000000000e+00  0.0000000000000000e+00  0.0000000000000000e+00  -1.9997951272962211e-01  -4.8177558723923014e-01  -9.6141835810683784e-01  -1.5553552073651973e+00  -2.0352699679041346e+00  -2.1258943649671007e+00  -1.5665161136498127e+00  -1.2246469099126473e-16  0.0000000000000000e+00  -4.8177558723922836e-01  -1.0251432918984187e+00  -1.8016682826470944e+00  -2.7012139378095616e+00  -3.3942608833910319e+00  -3.4625778263559672e+00  -2.4942004350308116e+00  -1.7319122691167667e-16  0.0000000000000000e+00  -9.6141835810684795e-01  -1.8016682826470953e+00  -2.6988636148299414e+00  -3.5917061297507220e+00  -4.2162012597914629e+00  -4.1799321287926130e+00  -3.0020516748978783e+00  -1.2246469099126473e-16  0.0000000000000000e+00  -1.5553552073651922e+00  -2.7012139378095581e+00  -3.5917061297507358e+00  -4.2660496025982466e+00  -4.6415824406406712e+00  -4.4690293726144921e+00  -3.2434598278520070e+00  -2.1209808167778785e-32  0.0000000000000000e+00  -2.0352699679041204e+00  -3.3942608833910244e+00  -4.2162012597914655e+00  -4.6415824406406561e+00  -4.7744545463145833e+00  -4.5220655921638473e+00  -3.3619632893225342e+00  1.2246469099126473e-16  0.0000000000000000e+00  -2.1258943649671087e+00  -3.4625778263559628e+00  -4.1799321287926006e+00  -4.4690293726145063e+00  -4.5220655921638571e+00  -4.3289349363228311e+00  -3.3525133952422448e+00  1.7319122691167667e-16  0.0000000000000000e+00  -1.5665161136498016e+00  -2.4942004350308018e+00  -3.0020516748978778e+00  -3.2434598278520155e+00  -3.3619632893225311e+00  -3.3525133952422381e+00  -2.7682963695356215e+00  1.2246469099126473e-16  0.0000000000000000e+00  -1.2246469099126473e-16  -1.7319122691167667e-16  -1.2246469099126473e-16  -2.1209808167778785e-32  1.2246469099126473e-16  1.7319122691167667e-16  1.2246469099126473e-16  4.2419616335557570e-32  0.0000000000000000e+00  0.0000000000000000e+00  0.0000000000000000e+00  0.0000000000000000e+00  0.0000000000000000e+00  0.0000000000000000e+00  0.0000000000000000e+00  0.0000000000000000e+00  0.0000000000000000e+00  0.0000000000000000e+00  -4.8177558723921998e-01  -1.0251432918984194e+00  -1.8016682826470956e+00  -2.7012139378095585e+00  -3.3942608833910355e+00  -3.4625778263559686e+00  -2.4942004350308067e+00  -1.7319122691167667e-16  0.0000000000000000e+00  -1.0251432918984131e+00  -2.0580852614262795e+00  -3.3503103864710746e+00  -4.7506068238000383e+00  -5.7685260085511132e+00  -5.7526827461669905e+00  -4.0478077820178315e+00  -2.4492938198252946e-16  0.0000000000000000e+00  -1.8016682826470909e+00  -3.3503103864710648e+00  -4.8957425326727089e+00  -6.3445465365981226e+00  -7.2799590486627066e+00  -7.0643832361314258e+00  -4.9327400507744059e+00  -1.7319122691167669e-16  0.0000000000000000e+00  -2.7012139378095457e+00  -4.7506068238000081e+00  -6.3445465365981297e+00  -7.5197033269816380e+00  -8.1033818520555254e+00  -7.6496820531653098e+00  -5.3590298191995833e+00  -2.9995198366204387e-32  0.0000000000000000e+00  -3.3942608833910319e+00  -5.7685260085511008e+00  -7.2799590486627146e+00  -8.1033818520555378e+00  -8.3300098674365728e+00  -7.7379854911703383e+00  -5.5098111910273779e+00  1.7319122691167667e-16  0.0000000000000000e+00  -3.4625778263559548e+00  -5.7526827461669887e+00  -7.0643832361314240e+00  -7.6496820531653036e+00  -7.7379854911703188e+00  -7.2415635364912330e+00  -5.3373308177604626e+00  2.4492938198252946e-16  0.0000000000000000e+00  -2.4942004350308102e+00  -4.0478077820178147e+00  -4.9327400507744077e+00  -5.3590298191995709e+00  -5.5098111910273735e+00  -5.3373308177604395e+00  -4.1772683333924547e+00  1.7319122691167674e-16  0.0000000000000000e+00  -1.7319122691167667e-16  -2.4492938198252946e-16  -1.7319122691167669e-16  -2.9995198366204387e-32  1.7319122691167667e-16  2.4492938198252946e-16  1.7319122691167674e-16  5.9990396732408774e-32  0.0000000000000000e+00  0.0000000000000000e+00  0.0000000000000000e+00  0.0000000000000000e+00  0.0000000000000000e+00  0.0000000000000000e+00  0.0000000000000000e+00  0.0000000000000000e+00  0.0000000000000000e+00  0.0000000000000000e+00  -9.6141835810685672e-01  -1.8016682826471047e+00  -2.6988636148299450e+00  -3.5917061297507300e+00  -4.2162012597914753e+00  -4.1799321287926068e+00  -3.0020516748978796e+00  -1.2246469099126473e-16  0.0000000000000000e+00  -1.8016682826470971e+00  -3.3503103864710782e+00  -4.8957425326727169e+00  -6.3445465365981333e+00  -7.2799590486627217e+00  -7.0643832361314249e+00  -4.9327400507744015e+00  -1.7319122691167669e-16  0.0000000000000000e+00  -2.6988636148299263e+00  -4.8957425326727106e+00  -6.8453808279148509e+00  -8.4856161164206600e+00  -9.4174564545364134e+00  -8.9543772014509404e+00  -6.1814123690190943e+00  -1.2246469099126473e-16  0.0000000000000000e+00  -3.5917061297507398e+00  -6.3445465365981262e+00  -8.4856161164206689e+00  -1.0041080708133876e+01  -1.0764351466673705e+01  -1.0066452103483329e+01  -6.9498383806049331e+00  -2.1209808167778796e-32  0.0000000000000000e+00  -4.2162012597914922e+00  -7.2799590486627315e+00  -9.4174564545364241e+00  -1.0764351466673693e+01  -1.1262455025583316e+01  -1.0467778783493570e+01  -7.3206058623016546e+00  1.2246469099126473e-16  0.0000000000000000e+00  -4.1799321287926094e+00  -7.0643832361314365e+00  -8.9543772014509457e+00  -1.0066452103483330e+01  -1.0467778783493559e+01  -9.8347579343037239e+00  -7.0898834545492102e+00  1.7319122691167669e-16  0.0000000000000000e+00  -3.0020516748978747e+00  -4.9327400507744183e+00  -6.1814123690191041e+00  -6.9498383806048523e+00  -7.3206058623016244e+00  -7.0898834545491791e+00  -5.4037087921848546e+00  1.2246469099126473e-16  0.0000000000000000e+00  -1.2246469099126473e-16  -1.7319122691167669e-16  -1.2246469099126473e-16  -2.1209808167778796e-32  1.2246469099126473e-16  1.7319122691167669e-16  1.2246469099126473e-16  4.2419616335557591e-32  0.0000000000000000e+00  0.0000000000000000e+00  0.0000000000000000e+00  0.0000000000000000e+00  0.0000000000000000e+00  0.0000000000000000e+00  0.0000000000000000e+00  0.0000000000000000e+00  0.0000000000000000e+00  0.0000000000000000e+00  -1.5553552073651939e+00  -2.7012139378095634e+00  -3.5917061297507384e+00  -4.2660496025982395e+00  -4.6415824406406685e+00  -4.4690293726144859e+00  -3.2434598278519839e+00  -2.1209808167778785e-32  0.0000000000000000e+00  -2.7012139378095585e+00  -4.7506068238000321e+00  -6.3445465365981288e+00  -7.5197033269816362e+00  -8.1033818520555325e+00  -7.6496820531652840e+00  -5.3590298191995265e+00  -2.9995198366204387e-32  0.0000000000000000e+00  -3.5917061297507269e+00  -6.3445465365981129e+00  -8.4856161164206636e+00  -1.0041080708133867e+01  -1.0764351466673700e+01  -1.0066452103483339e+01  -6.9498383806048789e+00  -2.1209808167778796e-32  0.0000000000000000e+00  -4.2660496025982360e+00  -7.5197033269816353e+00  -1.0041080708133880e+01  -1.1864634563987652e+01  -1.2702317945676132e+01  -1.1866304467869575e+01  -8.1870584196319687e+00  -3.6733523668962140e-48  0.0000000000000000e+00  -4.6415824406406658e+00  -8.1033818520555414e+00  -1.0764351466673704e+01  -1.2702317945676127e+01  -1.3634757835581425e+01  -1.2828674051980229e+01  -8.9598059762405242e+00  2.1209808167778785e-32  0.0000000000000000e+00  -4.4690293726144867e+00  -7.6496820531653098e+00  -1.0066452103483336e+01  -1.1866304467869575e+01  -1.2828674051980196e+01  -1.2271628745480228e+01  -8.8143788485742398e+00  2.9995198366204387e-32  0.0000000000000000e+00  -3.2434598278520048e+00  -5.3590298191995647e+00  -6.9498383806048691e+00  -8.1870584196319189e+00  -8.9598059762404727e+00  -8.8143788485741776e+00  -6.6666242495675858e+00  2.1209808167778796e-32  0.0000000000000000e+00  -2.1209808167778785e-32  -2.9995198366204387e-32  -2.1209808167778796e-32  -3.6733523668962140e-48  2.1209808167778785e-32  2.9995198366204387e-32  2.1209808167778796e-32  7.3467047337924279e-48  0.0000000000000000e+00  0.0000000000000000e+00  0.0000000000000000e+00  0.0000000000000000e+00  0.0000000000000000e+00  0.0000000000000000e+00  0.0000000000000000e+00  0.0000000000000000e+00  0.0000000000000000e+00  0.0000000000000000e+00  -2.0352699679041257e+00  -3.3942608833910364e+00  -4.2162012597914726e+00  -4.6415824406406641e+00  -4.7744545463145771e+00  -4.5220655921638313e+00  -3.3619632893225266e+00  1.2246469099126473e-16  0.0000000000000000e+00  -3.3942608833910199e+00  -5.7685260085511061e+00  -7.2799590486627155e+00  -8.1033818520555290e+00  -8.3300098674365461e+00  -7.7379854911703116e+00  -5.5098111910273682e+00  1.7319122691167667e-16  0.0000000000000000e+00  -4.2162012597914664e+00  -7.2799590486627146e+00  -9.4174564545364046e+00  -1.0764351466673695e+01  -1.1262455025583293e+01  -1.0467778783493580e+01  -7.3206058623016563e+00  1.2246469099126473e-16  0.0000000000000000e+00  -4.6415824406406641e+00  -8.1033818520555094e+00  -1.0764351466673702e+01  -1.2702317945676130e+01  -1.3634757835581437e+01  -1.2828674051980204e+01  -8.9598059762405136e+00  2.1209808167778785e-32  0.0000000000000000e+00  -4.7744545463145718e+00  -8.3300098674365746e+00  -1.1262455025583314e+01  -1.3634757835581439e+01  -1.4987791378510375e+01  -1.4349229281108087e+01  -1.0140941710465841e+01  -1.2246469099126473e-16  0.0000000000000000e+00  -4.5220655921638517e+00  -7.7379854911703436e+00  -1.0467778783493589e+01  -1.2828674051980212e+01  -1.4349229281108089e+01  -1.4025617195615252e+01  -1.0177483913343766e+01  -1.7319122691167667e-16  0.0000000000000000e+00  -3.3619632893225315e+00  -5.5098111910273797e+00  -7.3206058623016474e+00  -8.9598059762405047e+00  -1.0140941710465855e+01  -1.0177483913343748e+01  -7.7527858138896253e+00  -1.2246469099126473e-16  0.0000000000000000e+00  1.2246469099126473e-16  1.7319122691167667e-16  1.2246469099126473e-16  2.1209808167778785e-32  -1.2246469099126473e-16  -1.7319122691167667e-16  -1.2246469099126473e-16  -4.2419616335557570e-32  0.0000000000000000e+00  0.0000000000000000e+00  0.0000000000000000e+00  0.0000000000000000e+00  0.0000000000000000e+00  0.0000000000000000e+00  0.0000000000000000e+00  0.0000000000000000e+00  0.0000000000000000e+00  0.0000000000000000e+00  -2.1258943649671065e+00  -3.4625778263559654e+00  -4.1799321287926121e+00  -4.4690293726144867e+00  -4.5220655921638402e+00  -4.3289349363228267e+00  -3.3525133952422306e+00  1.7319122691167667e-16  0.0000000000000000e+00  -3.4625778263559668e+00  -5.7526827461669843e+00  -7.0643832361314089e+00  -7.6496820531653080e+00  -7.7379854911703179e+00  -7.2415635364912427e+00  -5.3373308177604306e+00  2.4492938198252946e-16  0.0000000000000000e+00  -4.1799321287926157e+00  -7.0643832361314249e+00  -8.9543772014509280e+00  -1.0066452103483313e+01  -1.0467778783493578e+01  -9.8347579343037470e+00  -7.0898834545491933e+00  1.7319122691167669e-16  0.0000000000000000e+00  -4.4690293726145054e+00  -7.6496820531653125e+00  -1.0066452103483343e+01  -1.1866304467869574e+01  -1.2828674051980212e+01  -1.2271628745480205e+01  -8.8143788485741794e+00  2.9995198366204387e-32  0.0000000000000000e+00  -4.5220655921638233e+00  -7.7379854911703401e+00  -1.0467778783493602e+01  -1.2828674051980236e+01  -1.4349229281108107e+01  -1.4025617195615245e+01  -1.0177483913343716e+01  -1.7319122691167667e-16  0.0000000000000000e+00  -4.3289349363228409e+00  -7.2415635364912552e+00  -9.8347579343037612e+00  -1.2271628745480189e+01  -1.4025617195615210e+01  -1.4012585569721647e+01  -1.0423221174541265e+01  -2.4492938198252946e-16  0.0000000000000000e+00  -3.3525133952422443e+00  -5.3373308177604599e+00  -7.0898834545491969e+00  -8.8143788485741918e+00  -1.0177483913343744e+01  -1.0423221174541334e+01  -8.1244345828096929e+00  -1.7319122691167674e-16  0.0000000000000000e+00  1.7319122691167667e-16  2.4492938198252946e-16  1.7319122691167669e-16  2.9995198366204387e-32  -1.7319122691167667e-16  -2.4492938198252946e-16  -1.7319122691167674e-16  -5.9990396732408774e-32  0.0000000000000000e+00  0.0000000000000000e+00  0.0000000000000000e+00  0.0000000000000000e+00  0.0000000000000000e+00  0.0000000000000000e+00  0.0000000000000000e+00  0.0000000000000000e+00  0.0000000000000000e+00  0.0000000000000000e+00  -1.5665161136498027e+00  -2.4942004350308080e+00  -3.0020516748978898e+00  -3.2434598278520030e+00  -3.3619632893225075e+00  -3.3525133952422239e+00  -2.7682963695355993e+00  1.2246469099126473e-16  0.0000000000000000e+00  -2.4942004350308120e+00  -4.0478077820178298e+00  -4.9327400507744068e+00  -5.3590298191995505e+00  -5.5098111910273611e+00  -5.3373308177604484e+00  -4.1772683333924343e+00  1.7319122691167674e-16  0.0000000000000000e+00  -3.0020516748978823e+00  -4.9327400507744068e+00  -6.1814123690190765e+00  -6.9498383806048603e+00  -7.3206058623016581e+00  -7.0898834545491836e+00  -5.4037087921848252e+00  1.2246469099126473e-16  0.0000000000000000e+00  -3.2434598278519902e+00  -5.3590298191995460e+00  -6.9498383806048638e+00  -8.1870584196319491e+00  -8.9598059762405331e+00  -8.8143788485741954e+00  -6.6666242495675343e+00  2.1209808167778796e-32  0.0000000000000000e+00  -3.3619632893225226e+00  -5.5098111910273717e+00  -7.3206058623016448e+00  -8.9598059762404976e+00  -1.0140941710465844e+01  -1.0177483913343741e+01  -7.7527858138895809e+00  -1.2246469099126473e-16  0.0000000000000000e+00  -3.3525133952422417e+00  -5.3373308177604466e+00  -7.0898834545491827e+00  -8.8143788485741830e+00  -1.0177483913343750e+01  -1.0423221174541291e+01  -8.1244345828096947e+00  -1.7319122691167674e-16  0.0000000000000000e+00  -2.7682963695356113e+00  -4.1772683333924734e+00  -5.4037087921848519e+00  -6.6666242495675183e+00  -7.7527858138896200e+00  -8.1244345828097178e+00  -6.6329056130764776e+00  -1.2246469099126473e-16  0.0000000000000000e+00  1.2246469099126473e-16  1.7319122691167674e-16  1.2246469099126473e-16  2.1209808167778796e-32  -1.2246469099126473e-16  -1.7319122691167674e-16  -1.2246469099126473e-16  -4.2419616335557591e-32  0.0000000000000000e+00  0.0000000000000000e+00  0.0000000000000000e+00  0.0000000000000000e+00  0.0000000000000000e+00  0.0000000000000000e+00  0.0000000000000000e+00  0.0000000000000000e+00  0.0000000000000000e+00  0.0000000000000000e+00  -1.2246469099126473e-16  -1.7319122691167667e-16  -1.2246469099126473e-16  -2.1209808167778785e-32  1.2246469099126473e-16  1.7319122691167667e-16  1.2246469099126473e-16  4.2419616335557570e-32  0.0000000000000000e+00  -1.7319122691167667e-16  -2.4492938198252946e-16  -1.7319122691167669e-16  -2.9995198366204387e-32  1.7319122691167667e-16  2.4492938198252946e-16  1.7319122691167674e-16  5.9990396732408774e-32  0.0000000000000000e+00  -1.2246469099126473e-16  -1.7319122691167669e-16  -1.2246469099126473e-16  -2.1209808167778796e-32  1.2246469099126473e-16  1.7319122691167669e-16  1.2246469099126473e-16  4.2419616335557591e-32  0.0000000000000000e+00  -2.1209808167778785e-32  -2.9995198366204387e-32  -2.1209808167778796e-32  -3.6733523668962140e-48  2.1209808167778785e-32  2.9995198366204387e-32  2.1209808167778796e-32  7.3467047337924279e-48  0.0000000000000000e+00  1.2246469099126473e-16  1.7319122691167667e-16  1.2246469099126473e-16  2.1209808167778785e-32  -1.2246469099126473e-16  -1.7319122691167667e-16  -1.2246469099126473e-16  -4.2419616335557570e-32  0.0000000000000000e+00  1.7319122691167667e-16  2.4492938198252946e-16  1.7319122691167669e-16  2.9995198366204387e-32  -1.7319122691167667e-16  -2.4492938198252946e-16  -1.7319122691167674e-16  -5.9990396732408774e-32  0.0000000000000000e+00  1.2246469099126473e-16  1.7319122691167674e-16  1.2246469099126473e-16  2.1209808167778796e-32  -1.2246469099126473e-16  -1.7319122691167674e-16  -1.2246469099126473e-16  -4.2419616335557591e-32  0.0000000000000000e+00  4.2419616335557570e-32  5.9990396732408774e-32  4.2419616335557591e-32  7.3467047337924279e-48  -4.2419616335557570e-32  -5.9990396732408774e-32  -4.2419616335557591e-32  -1.4693409467584856e-47  </DataArray> 
</PointData> 
</Piece>
</UnstructuredGrid>
</VTKFile>