<?xml version="1.0"?>
<VTKFile type="UnstructuredGrid"  version="0.1"  >
<UnstructuredGrid>
<Piece  NumberOfPoints="16641" NumberOfCells="32768">
<Points>
<DataArray  type="Float64"  NumberOfComponents="3"  format="ascii">0 0 0  0.0078125 0 0  0.015625 0 0  0.0234375 0 0  0.03125 0 0  0.0390625 0 0  0.046875 0 0  0.0546875 0 0  0.0625 0 0  0.0703125 0 0  0.078125 0 0  0.0859375 0 0  0.09375 0 0  0.1015625 0 0  0.109375 0 0  0.1171875 0 0  0.125 0 0  0.1328125 0 0  0.140625 0 0  0.1484375 0 0  0.15625 0 0  0.1640625 0 0  0.171875 0 0  0.1796875 0 0  0.1875 0 0  0.1953125 0 0  0.203125 0 0  0.2109375 0 0  0.21875 0 0  0.2265625 0 0  0.234375 0 0  0.2421875 0 0  0.25 0 0  0.2578125 0 0  0.265625 0 0  0.2734375 0 0  0.28125 0 0  0.2890625 0 0  0.296875 0 0  0.3046875 0 0  0.3125 0 0  0.3203125 0 0  0.328125 0 0  0.3359375 0 0  0.34375 0 0  0.3515625 0 0  0.359375 0 0  0.3671875 0 0  0.375 0 0  0.3828125 0 0  0.390625 0 0  0.3984375 0 0  0.40625 0 0  0.4140625 0 0  0.421875 0 0  0.4296875 0 0  0.4375 0 0  0.4453125 0 0  0.453125 0 0  0.4609375 0 0  0.46875 0 0  0.4765625 0 0  0.484375 0 0  0.4921875 0 0  0.5 0 0  0.5078125 0 0  0.515625 0 0  0.5234375 0 0  0.53125 0 0  0.5390625 0 0  0.546875 0 0  0.5546875 0 0  0.5625 0 0  0.5703125 0 0  0.578125 0 0  0.5859375 0 0  0.59375 0 0  0.6015625 0 0  0.609375 0 0  0.6171875 0 0  0.625 0 0  0.6328125 0 0  0.640625 0 0  0.6484375 0 0  0.65625 0 0  0.6640625 0 0  0.671875 0 0  0.6796875 0 0  0.6875 0 0  0.6953125 0 0  0.703125 0 0  0.7109375 0 0  0.71875 0 0  0.7265625 0 0  0.734375 0 0  0.7421875 0 0  0.75 0 0  0.7578125 0 0  0.765625 0 0  0.7734375 0 0  0.78125 0 0  0.7890625 0 0  0.796875 0 0  0.8046875 0 0  0.8125 0 0  0.8203125 0 0  0.828125 0 0  0.8359375 0 0  0.84375 0 0  0.8515625 0 0  0.859375 0 0  0.8671875 0 0  0.875 0 0  0.8828125 0 0  0.890625 0 0  0.8984375 0 0  0.90625 0 0  0.9140625 0 0  0.921875 0 0  0.9296875 0 0  0.9375 0 0  0.9453125 0 0  0.953125 0 0  0.9609375 0 0  0.96875 0 0  0.9765625 0 0  0.984375 0 0  0.9921875 0 0  1 0 0  0 0.0078125 0  0.0078125 0.0078125 0  0.015625 0.0078125 0  0.0234375 0.0078125 0  0.03125 0.0078125 0  0.0390625 0.0078125 0  0.046875 0.0078125 0  0.0546875 0.0078125 0  0.0625 0.0078125 0  0.0703125 0.0078125 0  0.078125 0.0078125 0  0.0859375 0.0078125 0  0.09375 0.0078125 0  0.1015625 0.0078125 0  0.109375 0.0078125 0  0.1171875 0.0078125 0  0.125 0.0078125 0  0.1328125 0.0078125 0  0.140625 0.0078125 0  0.1484375 0.0078125 0  0.15625 0.0078125 0  0.1640625 0.0078125 0  0.171875 0.0078125 0  0.1796875 0.0078125 0  0.1875 0.0078125 0  0.1953125 0.0078125 0  0.203125 0.0078125 0  0.2109375 0.0078125 0  0.21875 0.0078125 0  0.2265625 0.0078125 0  0.234375 0.0078125 0  0.2421875 0.0078125 0  0.25 0.0078125 0  0.2578125 0.0078125 0  0.265625 0.0078125 0  0.2734375 0.0078125 0  0.28125 0.0078125 0  0.2890625 0.0078125 0  0.296875 0.0078125 0  0.3046875 0.0078125 0  0.3125 0.0078125 0  0.3203125 0.0078125 0  0.328125 0.0078125 0  0.3359375 0.0078125 0  0.34375 0.0078125 0  0.3515625 0.0078125 0  0.359375 0.0078125 0  0.3671875 0.0078125 0  0.375 0.0078125 0  0.3828125 0.0078125 0  0.390625 0.0078125 0  0.3984375 0.0078125 0  0.40625 0.0078125 0  0.4140625 0.0078125 0  0.421875 0.0078125 0  0.4296875 0.0078125 0  0.4375 0.0078125 0  0.4453125 0.0078125 0  0.453125 0.0078125 0  0.4609375 0.0078125 0  0.46875 0.0078125 0  0.4765625 0.0078125 0  0.484375 0.0078125 0  0.4921875 0.0078125 0  0.5 0.0078125 0  0.5078125 0.0078125 0  0.515625 0.0078125 0  0.5234375 0.0078125 0  0.53125 0.0078125 0  0.5390625 0.0078125 0  0.546875 0.0078125 0  0.5546875 0.0078125 0  0.5625 0.0078125 0  0.5703125 0.0078125 0  0.578125 0.0078125 0  0.5859375 0.0078125 0  0.59375 0.0078125 0  0.6015625 0.0078125 0  0.609375 0.0078125 0  0.6171875 0.0078125 0  0.625 0.0078125 0  0.6328125 0.0078125 0  0.640625 0.0078125 0  0.6484375 0.0078125 0  0.65625 0.0078125 0  0.6640625 0.0078125 0  0.671875 0.0078125 0  0.6796875 0.0078125 0  0.6875 0.0078125 0  0.6953125 0.0078125 0  0.703125 0.0078125 0  0.7109375 0.0078125 0  0.71875 0.0078125 0  0.7265625 0.0078125 0  0.734375 0.0078125 0  0.7421875 0.0078125 0  0.75 0.0078125 0  0.7578125 0.0078125 0  0.765625 0.0078125 0  0.7734375 0.0078125 0  0.78125 0.0078125 0  0.7890625 0.0078125 0  0.796875 0.0078125 0  0.8046875 0.0078125 0  0.8125 0.0078125 0  0.8203125 0.0078125 0  0.828125 0.0078125 0  0.8359375 0.0078125 0  0.84375 0.0078125 0  0.8515625 0.0078125 0  0.859375 0.0078125 0  0.8671875 0.0078125 0  0.875 0.0078125 0  0.8828125 0.0078125 0  0.890625 0.0078125 0  0.8984375 0.0078125 0  0.90625 0.0078125 0  0.9140625 0.0078125 0  0.921875 0.0078125 0  0.9296875 0.0078125 0  0.9375 0.0078125 0  0.9453125 0.0078125 0  0.953125 0.0078125 0  0.9609375 0.0078125 0  0.96875 0.0078125 0  0.9765625 0.0078125 0  0.984375 0.0078125 0  0.9921875 0.0078125 0  1 0.0078125 0  0 0.015625 0  0.0078125 0.015625 0  0.015625 0.015625 0  0.0234375 0.015625 0  0.03125 0.015625 0  0.0390625 0.015625 0  0.046875 0.015625 0  0.0546875 0.015625 0  0.0625 0.015625 0  0.0703125 0.015625 0  0.078125 0.015625 0  0.0859375 0.015625 0  0.09375 0.015625 0  0.1015625 0.015625 0  0.109375 0.015625 0  0.1171875 0.015625 0  0.125 0.015625 0  0.1328125 0.015625 0  0.140625 0.015625 0  0.1484375 0.015625 0  0.15625 0.015625 0  0.1640625 0.015625 0  0.171875 0.015625 0  0.1796875 0.015625 0  0.1875 0.015625 0  0.1953125 0.015625 0  0.203125 0.015625 0  0.2109375 0.015625 0  0.21875 0.015625 0  0.2265625 0.015625 0  0.234375 0.015625 0  0.2421875 0.015625 0  0.25 0.015625 0  0.2578125 0.015625 0  0.265625 0.015625 0  0.2734375 0.015625 0  0.28125 0.015625 0  0.2890625 0.015625 0  0.296875 0.015625 0  0.3046875 0.015625 0  0.3125 0.015625 0  0.3203125 0.015625 0  0.328125 0.015625 0  0.3359375 0.015625 0  0.34375 0.015625 0  0.3515625 0.015625 0  0.359375 0.015625 0  0.3671875 0.015625 0  0.375 0.015625 0  0.3828125 0.015625 0  0.390625 0.015625 0  0.3984375 0.015625 0  0.40625 0.015625 0  0.4140625 0.015625 0  0.421875 0.015625 0  0.4296875 0.015625 0  0.4375 0.015625 0  0.4453125 0.015625 0  0.453125 0.015625 0  0.4609375 0.015625 0  0.46875 0.015625 0  0.4765625 0.015625 0  0.484375 0.015625 0  0.4921875 0.015625 0  0.5 0.015625 0  0.5078125 0.015625 0  0.515625 0.015625 0  0.5234375 0.015625 0  0.53125 0.015625 0  0.5390625 0.015625 0  0.546875 0.015625 0  0.5546875 0.015625 0  0.5625 0.015625 0  0.5703125 0.015625 0  0.578125 0.015625 0  0.5859375 0.015625 0  0.59375 0.015625 0  0.6015625 0.015625 0  0.609375 0.015625 0  0.6171875 0.015625 0  0.625 0.015625 0  0.6328125 0.015625 0  0.640625 0.015625 0  0.6484375 0.015625 0  0.65625 0.015625 0  0.6640625 0.015625 0  0.671875 0.015625 0  0.6796875 0.015625 0  0.6875 0.015625 0  0.6953125 0.015625 0  0.703125 0.015625 0  0.7109375 0.015625 0  0.71875 0.015625 0  0.7265625 0.015625 0  0.734375 0.015625 0  0.7421875 0.015625 0  0.75 0.015625 0  0.7578125 0.015625 0  0.765625 0.015625 0  0.7734375 0.015625 0  0.78125 0.015625 0  0.7890625 0.015625 0  0.796875 0.015625 0  0.8046875 0.015625 0  0.8125 0.015625 0  0.8203125 0.015625 0  0.828125 0.015625 0  0.8359375 0.015625 0  0.84375 0.015625 0  0.8515625 0.015625 0  0.859375 0.015625 0  0.8671875 0.015625 0  0.875 0.015625 0  0.8828125 0.015625 0  0.890625 0.015625 0  0.8984375 0.015625 0  0.90625 0.015625 0  0.9140625 0.015625 0  0.921875 0.015625 0  0.9296875 0.015625 0  0.9375 0.015625 0  0.9453125 0.015625 0  0.953125 0.015625 0  0.9609375 0.015625 0  0.96875 0.015625 0  0.9765625 0.015625 0  0.984375 0.015625 0  0.9921875 0.015625 0  1 0.015625 0  0 0.0234375 0  0.0078125 0.0234375 0  0.015625 0.0234375 0  0.0234375 0.0234375 0  0.03125 0.0234375 0  0.0390625 0.0234375 0  0.046875 0.0234375 0  0.0546875 0.0234375 0  0.0625 0.0234375 0  0.0703125 0.0234375 0  0.078125 0.0234375 0  0.0859375 0.0234375 0  0.09375 0.0234375 0  0.1015625 0.0234375 0  0.109375 0.0234375 0  0.1171875 0.0234375 0  0.125 0.0234375 0  0.1328125 0.0234375 0  0.140625 0.0234375 0  0.1484375 0.0234375 0  0.15625 0.0234375 0  0.1640625 0.0234375 0  0.171875 0.0234375 0  0.1796875 0.0234375 0  0.1875 0.0234375 0  0.1953125 0.0234375 0  0.203125 0.0234375 0  0.2109375 0.0234375 0  0.21875 0.0234375 0  0.2265625 0.0234375 0  0.234375 0.0234375 0  0.2421875 0.0234375 0  0.25 0.0234375 0  0.2578125 0.0234375 0  0.265625 0.0234375 0  0.2734375 0.0234375 0  0.28125 0.0234375 0  0.2890625 0.0234375 0  0.296875 0.0234375 0  0.3046875 0.0234375 0  0.3125 0.0234375 0  0.3203125 0.0234375 0  0.328125 0.0234375 0  0.3359375 0.0234375 0  0.34375 0.0234375 0  0.3515625 0.0234375 0  0.359375 0.0234375 0  0.3671875 0.0234375 0  0.375 0.0234375 0  0.3828125 0.0234375 0  0.390625 0.0234375 0  0.3984375 0.0234375 0  0.40625 0.0234375 0  0.4140625 0.0234375 0  0.421875 0.0234375 0  0.4296875 0.0234375 0  0.4375 0.0234375 0  0.4453125 0.0234375 0  0.453125 0.0234375 0  0.4609375 0.0234375 0  0.46875 0.0234375 0  0.4765625 0.0234375 0  0.484375 0.0234375 0  0.4921875 0.0234375 0  0.5 0.0234375 0  0.5078125 0.0234375 0  0.515625 0.0234375 0  0.5234375 0.0234375 0  0.53125 0.0234375 0  0.5390625 0.0234375 0  0.546875 0.0234375 0  0.5546875 0.0234375 0  0.5625 0.0234375 0  0.5703125 0.0234375 0  0.578125 0.0234375 0  0.5859375 0.0234375 0  0.59375 0.0234375 0  0.6015625 0.0234375 0  0.609375 0.0234375 0  0.6171875 0.0234375 0  0.625 0.0234375 0  0.6328125 0.0234375 0  0.640625 0.0234375 0  0.6484375 0.0234375 0  0.65625 0.0234375 0  0.6640625 0.0234375 0  0.671875 0.0234375 0  0.6796875 0.0234375 0  0.6875 0.0234375 0  0.6953125 0.0234375 0  0.703125 0.0234375 0  0.7109375 0.0234375 0  0.71875 0.0234375 0  0.7265625 0.0234375 0  0.734375 0.0234375 0  0.7421875 0.0234375 0  0.75 0.0234375 0  0.7578125 0.0234375 0  0.765625 0.0234375 0  0.7734375 0.0234375 0  0.78125 0.0234375 0  0.7890625 0.0234375 0  0.796875 0.0234375 0  0.8046875 0.0234375 0  0.8125 0.0234375 0  0.8203125 0.0234375 0  0.828125 0.0234375 0  0.8359375 0.0234375 0  0.84375 0.0234375 0  0.8515625 0.0234375 0  0.859375 0.0234375 0  0.8671
[...]
<PointData  Scalars="f_1311"> 
<DataArray  type="Float64"  Name="f_1311"  format="ascii">0.0000000000000000e+00  0.0000000000000000e+00  0.0000000000000000e+00  0.0000000000000000e+00  0.0000000000000000e+00  0.0000000000000000e+00  0.0000000000000000e+00  0.0000000000000000e+00  0.0000000000000000e+00  0.0000000000000000e+00  0.0000000000000000e+00  0.0000000000000000e+00  0.0000000000000000e+00  0.0000000000000000e+00  0.0000000000000000e+00  0.0000000000000000e+00  0.0000000000000000e+00  0.0000000000000000e+00  0.0000000000000000e+00  0.0000000000000000e+00  0.0000000000000000e+00  0.0000000000000000e+00  0.0000000000000000e+00  0.0000000000000000e+00  0.0000000000000000e+00  0.0000000000000000e+00  0.0000000000000000e+00  0.0000000000000000e+00  0.0000000000000000e+00  0.0000000000000000e+00  0.0000000000000000e+00  0.0000000000000000e+00  0.0000000000000000e+00  0.0000000000000000e+00  0.0000000000000000e+00  0.0000000000000000e+00  0.0000000000000000e+00  0.0000000000000000e+00  0.0000000000000000e+00  0.0000000000000000e+00  0.0000000000000000e+00  0.0000000000000000e+00  0.0000000000000000e+00  0.0000000000000000e+00  0.0000000000000000e+00  0.0000000000000000e+00  0.0000000000000000e+00  0.0000000000000000e+00  0.0000000000000000e+00  0.0000000000000000e+00  0.0000000000000000e+00  0.0000000000000000e+00  0.0000000000000000e+00  0.0000000000000000e+00  0.0000000000000000e+00  0.0000000000000000e+00  0.0000000000000000e+00  0.0000000000000000e+00  0.0000000000000000e+00  0.0000000000000000e+00  0.0000000000000000e+00  0.0000000000000000e+00  0.0000000000000000e+00  0.0000000000000000e+00  0.0000000000000000e+00  0.0000000000000000e+00  0.0000000000000000e+00  0.0000000000000000e+00  0.0000000000000000e+00  0.0000000000000000e+00  0.0000000000000000e+00  0.0000000000000000e+00  0.0000000000000000e+00  0.0000000000000000e+00  0.0000000000000000e+00  0.0000000000000000e+00  0.0000000000000000e+00  0.0000000000000000e+00  0.0000000000000000e+00  0.0000000000000000e+00  0.0000000000000000e+00  0.0000000000000000e+00  0.0000000000000000e+00  0.0000000000000000e+00  0.0000000000000000e+00  0.0000000000000000e+00  0.0000000000000000e+00  0.0000000000000000e+00  0.0000000000000000e+00  0.0000000000000000e+00  0.0000000000000000e+00  0.0000000000000000e+00  0.0000000000000000e+00  0.0000000000000000e+00  0.0000000000000000e+00  0.0000000000000000e+00  0.0000000000000000e+00  0.0000000000000000e+00  0.0000000000000000e+00  0.0000000000000000e+00  0.0000000000000000e+00  0.0000000000000000e+00  0.0000000000000000e+00  0.0000000000000000e+00  0.0000000000000000e+00  0.0000000000000000e+00  0.0000000000000000e+00  0.0000000000000000e+00  0.0000000000000000e+00  0.0000000000000000e+00  0.0000000000000000e+00  0.0000000000000000e+00  0.0000000000000000e+00  0.0000000000000000e+00  0.0000000000000000e+00  0.0000000000000000e+00  0.0000000000000000e+00  0.0000000000000000e+00  0.0000000000000000e+00  0.0000000000000000e+00  0.0000000000000000e+00  0.0000000000000000e+00  0.0000000000000000e+00  0.0000000000000000e+00  0.0000000000000000e+00  0.0000000000000000e+00  0.0000000000000000e+00  0.0000000000000000e+00  0.0000000000000000e+00  0.0000000000000000e+00  1.9106333776123985e-05  7.5725579940112532e-05  1.6958554526351640e-04  3.0023413183786503e-04  4.6704097224589799e-04  6.6919971011143785e-04  9.0573091864383168e-04  1.1754856478357976e-03  1.4771495888970037e-03  1.8092478425388941e-03  2.1701502757658434e-03  2.5580774499084288e-03  2.9711071008146736e-03  3.4071811503226172e-03  3.8641132263483192e-03  4.3395966673428869e-03  4.8312129852138910e-03  5.3364407593700621e-03  5.8526649329910278e-03  6.3771864814604548e-03  6.9072324214955487e-03  7.4399661284367145e-03  7.9724979280735801e-03  8.5018959284508481e-03  9.0251970562116885e-03  9.5394182613615479e-03  1.0041567853621319e-02  1.0528656933078921e-02  1.0997710877449456e-02  1.1445780847911128e-02  1.1869955275364526e-02  1.2267371288881744e-02  1.2635226048177191e-02  1.2970787942130744e-02  1.3271407615637136e-02  1.3534528787560327e-02  1.3757698822992019e-02  1.3938579023748076e-02  1.4074954601749821e-02  1.4164744300797394e-02  1.4206009633239468e-02  1.4196963699119582e-02  1.4135979556546564e-02  1.4021598113339180e-02  1.3852535511356755e-02  1.3627689976414371e-02  1.3346148108214653e-02  1.3007190586408380e-02  1.2610297270567259e-02  1.2155151673682141e-02  1.1641644790658280e-02  1.1069878265183323e-02  1.0440166880351529e-02  9.7530403604519766e-03  9.0092444734116584e-03  8.2097414255041488e-03  7.3557095420982424e-03  6.4485422303962149e-03  5.4898462223206927e-03  4.4814390979297427e-03  3.4253460919645247e-03  2.3237961883689900e-03  1.1792175098420737e-03  -5.7679883023443737e-06  -1.2283505084922453e-03  -2.4855390718296158e-03  -3.7741688338147213e-03  -5.0909090369687885e-03  -6.4322715804175654e-03  -7.7946201844739712e-03  -9.1741801263029044e-03  -1.0567048520881911e-02  -1.1969205119629185e-02  -1.3376523597304721e-02  -1.4784783296172534e-02  -1.6189681394759924e-02  -1.7586845467112536e-02  -1.8971846396972192e-02  -2.0340211610081135e-02  -2.1687438586534512e-02  -2.3009008614062673e-02  -2.4300400742110092e-02  -2.5557105895707716e-02  -2.6774641107388118e-02  -2.7948563824771167e-02  -2.9074486250869423e-02  -3.0148089673901490e-02  -3.1165138742913427e-02  -3.2121495645694588e-02  -3.3013134145100632e-02  -3.3836153430323354e-02  -3.4586791739694520e-02  -3.5261439712090614e-02  -3.5856653424456264e-02  -3.6369167073676448e-02  -3.6795905261638007e-02  -3.7133994843416472e-02  -3.7380776299313426e-02  -3.7533814592802688e-02  -3.7590909477545460e-02  -3.7550105218091268e-02  -3.7409699690316787e-02  -3.7168252829334822e-02  -3.6824594394178289e-02  -3.6377831020556993e-02  -3.5827352534751319e-02  -3.5172837503814794e-02  -3.4414257999511248e-02  -3.3551883555369151e-02  -3.2586284299010032e-02  -3.1518333244105107e-02  -3.0349207729116288e-02  -2.9080389993033105e-02  -2.7713666881171526e-02  -2.6251128678023677e-02  -2.4695167068223622e-02  -2.3048472232093782e-02  -2.1314029089138164e-02  -1.9495112713299546e-02  -1.7595282959650800e-02  -1.5618378370242693e-02  -1.3568509478979796e-02  -1.1450051744173750e-02  -9.2676385833753930e-03  -7.0261556024672376e-03  -4.7307388259279068e-03  -2.3867850112230149e-03  -1.2018114516697588e-17  0.0000000000000000e+00  3.8145437889712827e-05  1.5122641443497843e-04  3.3869928439773516e-04  5.9966102599584082e-04  9.3285250705477877e-04  1.3366630402808662e-03  1.8091362130689113e-03  2.3479769730637349e-03  2.9505599467356202e-03  3.6139389641877172e-03  4.3348577595692887e-03  5.1097618126183493e-03  5.9348112932013494e-03  6.8058950671112490e-03  7.7186457179228389e-03  8.6684555364051358e-03  9.6504934257866763e-03  1.0659722668201647e-02  1.1690919494685035e-02  1.2738692398581620e-02  1.3797502129527961e-02  1.4861682303058649e-02  1.5925460558615309e-02  1.6982980196954097e-02  1.8028322226168354e-02  1.9055527744136758e-02  2.0058620583860473e-02  2.1031630147205580e-02  2.1968614351708656e-02  2.2863682614520563e-02  2.3711018797273015e-02  2.4504904035460164e-02  2.5239739376124688e-02  2.5910068147976958e-02  2.6510597988614989e-02  2.7036222454448765e-02  2.7482042139858557e-02  2.7843385233525347e-02  2.8115827441292904e-02  2.8295211206689024e-02  2.8377664162182636e-02  2.8359616746410951e-02  2.8237818924942443e-02  2.8009355954764472e-02  2.7671663135379252e-02  2.7222539492351969e-02  2.6660160342277622e-02  2.5983088691393794e-02  2.5190285423507881e-02  2.4281118236490491e-02  2.3255369290317324e-02  2.2113241533462530e-02  2.0855363678441253e-02  1.9482793801343167e-02  1.7997021544364996e-02  1.6399968904585102e-02  1.4693989596538686e-02  1.2881866980505157e-02  1.0966810552828155e-02  8.9524509990241696e-03  6.8428338148844329e-03  4.6424115052321382e-03  2.3560343744418407e-03  -1.1060072752638889e-05  -2.4532590972428207e-03  -4.9645880310674297e-03  -7.5387248909472840e-03  -1.0169016264097891e-02  -1.2848494426474458e-02  -1.5569895649592982e-02  -1.8325679648159138e-02  -2.1108050116976352e-02  -2.3908976301949002e-02  -2.6720215546481872e-02  -2.9533336751301778e-02  -3.2339744682469536e-02  -3.5130705059446481e-02  -3.7897370352178550e-02  -4.0630806213681377e-02  -4.3322018472050312e-02  -4.5961980603780074e-02  -4.8541661608193155e-02  -5.1052054201105326e-02  -5.3484203244305299e-02  -5.5829234326197304e-02  -5.8078382407840731e-02  -6.0223020448000437e-02  -6.2254687920061592e-02  -6.4165119133661311e-02  -6.5946271273586710e-02  -6.7590352068971765e-02  -6.9089847006168048e-02  -7.0437545999452858e-02  -7.1626569434779824e-02  -7.2650393503041297e-02  -7.3502874740756882e-02  -7.4178273697975389e-02  -7.4671277655135232e-02  -7.4977022312901875e-02  -7.5091112381521122e-02  -7.5009640998912094e-02  -7.4729207909788181e-02  -7.4246936341169883e-02  -7.3560488513184599e-02  -7.2668079727579563e-02  -7.1568490980266741e-02  -7.0261080048328234e-02  -6.8745791006073059e-02  -6.7023162129337149e-02  -6.5094332151882039e-02  -6.2961044842829716e-02  -6.0625651879277140e-02  -5.8091113994086389e-02  -5.5361000384965844e-02  -5.2439486377943170e-02  -4.9331349346535984e-02  -4.6041962897626257e-02  -4.2577289347900414e-02  -3.8943870532277047e-02  -3.5148817012259588e-02  -3.1199795794655313e-02  -2.7105016744741840e-02  -2.2873218013047980e-02  -1.8513651053872981e-02  -1.4036066321950537e-02  -9.4507016997372514e-03  -4.7682772272787449e-03  -2.4007276342861943e-17  0.0000000000000000e+00  5.7072813806549728e-05  2.2632334712233766e-04  5.0693789297111551e-04  8.9756476120992745e-04  1.3963191674726246e-03  2.0007900519745572e-03  2.7080488062423197e-03  3.5146598797229237e-03  4.4166932321808242e-03  5.4097385918670492e-03  6.4889214735028584e-03  7.6489209045819953e-03  8.8839888028392749e-03  1.0187970942418490e-02  1.1554329441091993e-02  1.2976166695906108e-02  1.4446250689886664e-02  1.5957041587885329e-02  1.7500719535430021e-02  1.9069213570391912e-02  2.0654231553546454e-02  2.2247291020695274e-02  2.3839750855779003e-02  2.5422843681670419e-02  2.6987708862676686e-02  2.8525426010674138e-02  3.0027048884830713e-02  3.1483639573387810e-02  3.2886302844702432e-02  3.4226220553933880e-02  3.5494685991236501e-02  3.6683138057099648e-02  3.7783195150769049e-02  3.8786688658098568e-02  3.9685695926174741e-02  4.0472572613205526e-02  4.1139984303831326e-02  4.1680937281859620e-02  4.2088808354755002e-02  4.2357373626741142e-02  4.2480836120357926e-02  4.2453852149488318e-02  4.2271556350434371e-02  4.1929585281446850e-02  4.1424099505267632e-02  4.0751804073561361e-02  3.9909967336878543e-02  3.8896438008597843e-02  3.7709660416513392e-02  3.6348687881050570e-02  3.4813194164693084e-02  3.3103482942933402e-02  3.1220495253025875e-02  2.9165814882875313e-02  2.6941671668638270e-02  2.4550942675956863e-02  2.1997151246188427e-02  1.9284463895528462e-02  1.6417685061515339e-02  1.3402249698046931e-02  1.0244213726699100e-02  6.9502423588096596e-03  3.5275963094414304e-03  -1.5884069037219676e-05  -3.6717966994564218e-03  -7.4311976976205582e-03  -1.1284623248178232e-02  -1.5222113385086678e-02  -1.9233237617019810e-02  -2.3307122332077487e-02  -2.7432479910285079e-02  -3.1597639466741961e-02  -3.5790579142811807e-02  -3.9998959857502958e-02  -4.4210160426222458e-02  -4.8411313949310850e-02  -5.2589345368285946e-02  -5.6731010083558665e-02  -6.0822933523445873e-02  -6.4851651550702993e-02  -6.8803651589563766e-02  -7.2665414353279084e-02  -7.6423456049560662e-02  -8.0064370939070054e-02  -8.3574874120191489e-02  -8.6941844411786318e-02  -9.0152367204472478e-02  -9.3193777150127124e-02  -9.6053700558999325e-02  -9.8720097373668284e-02  -1.0118130258952857e-01  -1.0342606699221449e-01  -1.0544359708339589e-01  -1.0722359406809943e-01  -1.0875629177838159e-01  -1.1003249341058295e-01  -1.1104360695603109e-01  -1.1178167920803223e-01  -1.1223942823143306e-01  -1.1241027418472997e-01  -1.1228836838882668e-01  -1.1186862054099657e-01  -1.1114672397732543e-01  -1.1011917889209116e-01  -1.0878331342790537e-01  -1.0713730255619749e-01  -1.0518018467376623e-01  -1.0291187584731916e-01  -1.0033318164489893e-01  -9.7445806499752957e-02  -9.4252360560096879e-02  -9.0756363985562652e-02  -8.6962248659966115e-02  -8.2875357298592717e-02  -7.8501939938615803e-02  -7.3849147812165949e-02  -6.8925024615009309e-02  -6.3738495200108047e-02  -5.8299351746473119e-02  -5.2618237483194649e-02  -4.6706628090851139e-02  -4.0576810967020850e-02  -3.4241862641325137e-02  -2.7715624772624337e-02  -2.1012679351003680e-02  -1.4148323848872464e-02  -7.1385466082897718e-03  -3.5938602537527288e-17  0.0000000000000000e+00  7.5844151292512997e-05  3.0083803322193149e-04  6.7389991334099934e-04  1.1932327649254962e-03  1.8563307667123911e-03  2.6599883685296593e-03  3.6003118936684267e-03  4.6727336407620928e-03  5.8720284397582156e-03  7.1923326088397261e-03  8.6271652511938444e-03  1.0169451823123392e-02  1.1811549897549470e-02  1.3545277039837763e-02  1.5361940706008501e-02  1.7252370066766255e-02  1.9206949654479926e-02  2.1215654724230495e-02  2.3268088214342144e-02  2.5353519186552698e-02  2.7460922620890338e-02  2.9579020435872922e-02  3.1696323600325663e-02  3.3801175199420865e-02  3.5881794314074532e-02  3.7926320569992143e-02  3.9922859210054951e-02  4.1859526541752824e-02  4.3724495609698828e-02  4.5506041942150285e-02  4.7192589219792060e-02  4.8772754714737673e-02  5.0235394348055649e-02  5.1569647214768366e-02  5.2764979426468510e-02  5.3811227123361123e-02  5.4698638509627376e-02  5.5417914768553934e-02  5.5960249716914413e-02  5.6317368061489424e-02  5.6481562124509110e-02  5.6445726909123334e-02  5.6203393380648760e-02  5.5748759844490750e-02  5.5076721307110499e-02  5.4182896712218528e-02  5.3063653950618656e-02  5.1716132548609850e-02  5.0138263946721759e-02  4.8328789287669642e-02  4.6287274639831157e-02  4.4014123590197969e-02  4.1510587148656033e-02  3.8778770913512527e-02  3.5821639456499126e-02  3.2643017893890923e-02  2.9247590618967329e-02  2.5640897179721740e-02  2.1829325294486921e-02  1.7820101006980678e-02  1.3621275991124421e-02  9.2417120248659834e-03  4.6910626610751358e-03  -2.0247867609229331e-05  -4.8810484643729219e-03  -9.8794476500187051e-03  -1.5002862648204987e-02  -2.0238051003020473e-02  -2.5571144649578405e-02  -3.0987686350354805e-02  -3.6472668402194312e-02  -4.2010573511422115e-02  -4.7585417727209194e-02  -5.3180795316433126e-02  -5.8779925456571645e-02  -6.4365700616906760e-02  -6.9920736492331631e-02  -7.5427423348482237e-02  -8.0867978631737419e-02  -8.6224500692785103e-02  -9.1479023468210630e-02  -9.6613571960504491e-02  -1.0161021835352549e-01  -1.0645113859740687e-01  -1.1111866929432938e-01  -1.1559536471461705e-01  -1.1986405377100026e-01  -1.2390789677783366e-01  -1.2771044182155492e-01  -1.3125568056856299e-01  -1.3452810333724732e-01  -1.3751275326180420e-01  -1.4019527937701518e-01  -1.4256198845519674e-01  -1.4459989542897997e-01  -1.4629677223664070e-01  -1.4764119493028860e-01  -1.4862258889105556e-01  -1.4923127200015612e-01  -1.4945849561946656e-01  -1.4929648324084327e-01  -1.4873846666922175e-01  -1.4777871961093525e-01  -1.4641258854543979e-01  -1.4463652076582628e-01  -1.4244808948116747e-01  -1.3984601588175191e-01  -1.3683018807669101e-01  -1.3340167682224813e-01  -1.2956274796852327e-01  -1.2531687156189789e-01  -1.2066872755076713e-01  -1.1562420805313921e-01  -1.1019041615591561e-01  -1.0437566122853478e-01  -9.8189450747072360e-02  -9.1642478640585043e-02  -8.4746610189549348e-02  -7.7514863527761699e-02  -6.9961387826132621e-02  -6.2101438270679335e-02  -5.3951347989182698e-02  -4.5528497129968919e-02  -3.6851279336685173e-02  -2.7939065845991765e-02  -1.8812167223365036e-02  -9.4917920325876450e-03  -4.7783349490829911e-17  0.0000000000000000e+00  9.4415439794502448e-05  3.7459337844355503e-04  8.3918673562076375e-04  1.4859575483372985e-03  2.3117850655608083e-03  3.3126770385897386e-03  4.4837841709065209e-03  5.8194176810695206e-03  7.3130699221949135e-03  8.9574379917084362e-03  1.0744450255385476e-02  1.2665295700282674e-02  1.4710456021999690e-02  1.6869740342820162e-02  1.9132322448687542e-02  2.1486780424777401e-02  2.3921138561528395e-02  2.6422911395538897e-02  2.8979149742599519e-02  3.1576488573613032e-02  3.4201196577793136e-02  3.6839227252019283e-02  3.9476271349802236e-02  4.2097810518715216e-02  4.4689171950926879e-02  4.7235583867765309e-02  4.9722231656135242e-02  5.2134314472077031e-02  5.4457102124709084e-02  5.6675992052375147e-02  5.8776566201996887e-02  6.0744647622290295e-02  6.2566356581901836e-02  6.4228166024318509e-02  6.5716956172937824e-02  6.7020068101703786e-02  6.8125356089358199e-02  6.9021238578500246e-02  6.9696747564445230e-02  7.0141576243120063e-02  7.0346124752071970e-02  7.0301543844055236e-02  6.9999776338430922e-02  6.9433596202072317e-02  6.8596645118209995e-02  6.7483466408963425e-02  6.6089536185028483e-02  6.4411291604092896e-02  6.2446156128089195e-02  6.0192561678264665e-02  5.7649967596273020e-02  5.4818876329037279e-02  5.1700845764937116e-02  4.8298498158975113e-02  4.4615525594868338e-02  4.0656691942533567e-02  3.6427831280095420e-02  3.1935842760377434e-02  2.7188681912742731e-02  2.2195348382150665e-02  1.6965870118326707e-02  1.1511284038990327e-02  5.8436132021036829e-03  -2.4159466936679193e-05  -6.0781208363566768e-03  -1.2303460549759396e-02  -1.8684507250424122e-02  -2.5204767959578944e-02  -3.1846970509870204e-02  -3.8593108925325907e-02  -4.5424491629403298e-02  -5.2321792353376056e-02  -5.9265103608258145e-02  -6.6233992574836559e-02  -7.3207559258036681e-02  -8.0164496744081798e-02  -8.7083153391400658e-02  -9.3941596779343217e-02  -1.0071767923227382e-01  -1.0738910473064797e-01  -1.1393349701528598e-01  -1.2032846868610203e-01  -1.2655169109232284e-01  -1.3258096480739637e-01  -1.3839429047868362e-01  -1.4396993983947892e-01  -1.4928652666896086e-01  -1.5432307748435634e-01  -1.5905910174892149e-01  -1.6347466137930244e-01  -1.6755043933639599e-01  -1.7126780708510456e-01  -1.7460889071019678e-01  -1.7755663547801262e-01  -1.8009486863686788e-01  -1.8220836025280990e-01  -1.8388288188173443e-01  -1.8510526288383899e-01  -1.8586344419209586e-01  -1.8614652935247658e-01  -1.8594483266053521e-01  -1.8524992422626169e-01  -1.8405467180704832e-01  -1.8235327925691658e-01  -1.8014132144925407e-01  -1.7741577553972268e-01  -1.7417504844593884e-01  -1.7041900043098412e-01  -1.6614896468884716e-01  -1.6136776284117574e-01  -1.5607971626690975e-01  -1.5029065319861573e-01  -1.4400791153271833e-01  -1.3724033731435736e-01  -1.2999827887258353e-01  -1.2229357659693045e-01  -1.1413954836356810e-01  -1.0555097063785272e-01  -9.6544055300425910e-02  -8.7136422266788249e-02  -7.7347067993991062e-02  -6.7196329990519985e-02  -5.6705847458399489e-02  -4.5898518180047948e-02  -3.4798451675645582e-02  -2.3430918424471561e-02  -1.1822294468602269e-02  -5.9512982169882010e-17  0.0000000000000000e+00  1.1274307884862590e-04  4.4741397435608385e-04  1.0024035710504493e-03  1.7750384281535433e-03  2.7615904493619343e-03  3.9572903705413307e-03  5.3563450220087284e-03  6.9519583099422397e-03  8.7363558494376586e-03  1.0700813170035526e-02  1.2835687402902049e-02  1.5130452347683813e-02  1.7573736806042236e-02  2.0153366058258959e-02  2.2856406349108103e-02  2.5669212239323808e-02  2.8577476669558618e-02  3.1566283574872137e-02  3.4620162879247164e-02  3.7723147691775837e-02  4.0858833518677209e-02  4.4010439298611766e-02  4.7160870062328733e-02  5.0292781012232377e-02  5.3388642812287092e-02  5.6430807874378555e-02  5.9401577423497061e-02  6.2283269121018094e-02  6.5058285023008408e-02  6.7709179648747675e-02  7.0218727933612821e-02  7.2569992840217201e-02  7.4746392401977335e-02  7.6731765974392602e-02  7.8510439471082286e-02  8.0067289364035565e-02  8.1387805230700022e-02  8.2458150634319230e-02  8.3265222128387967e-02  8.3796706181263808e-02  8.4041133822679664e-02  8.