<?xml version="1.0"?>
<VTKFile type="UnstructuredGrid"  version="0.1"  >
<UnstructuredGrid>
<Piece  NumberOfPoints="81" NumberOfCells="128">
<Points>
<DataArray  type="Float64"  NumberOfComponents="3"  format="ascii">0 0 0  0.125 0 0  0.25 0 0  0.375 0 0  0.5 0 0  0.625 0 0  0.75 0 0  0.875 0 0  1 0 0  0 0.125 0  0.125 0.125 0  0.25 0.125 0  0.375 0.125 0  0.5 0.125 0  0.625 0.125 0  0.75 0.125 0  0.875 0.125 0  1 0.125 0  0 0.25 0  0.125 0.25 0  0.25 0.25 0  0.375 0.25 0  0.5 0.25 0  0.625 0.25 0  0.75 0.25 0  0.875 0.25 0  1 0.25 0  0 0.375 0  0.125 0.375 0  0.25 0.375 0  0.375 0.375 0  0.5 0.375 0  0.625 0.375 0  0.75 0.375 0  0.875 0.375 0  1 0.375 0  0 0.5 0  0.125 0.5 0  0.25 0.5 0  0.375 0.5 0  0.5 0.5 0  0.625 0.5 0  0.75 0.5 0  0.875 0.5 0  1 0.5 0  0 0.625 0  0.125 0.625 0  0.25 0.625 0  0.375 0.625 0  0.5 0.625 0  0.625 0.625 0  0.75 0.625 0  0.875 0.625 0  1 0.625 0  0 0.75 0  0.125 0.75 0  0.25 0.75 0  0.375 0.75 0  0.5 0.75 0  0.625 0.75 0  0.75 0.75 0  0.875 0.75 0  1 0.75 0  0 0.875 0  0.125 0.875 0  0.25 0.875 0  0.375 0.875 0  0.5 0.875 0  0.625 0.875 0  0.75 0.875 0  0.875 0.875 0  1 0.875 0  0 1 0  0.125 1 0  0.25 1 0  0.375 1 0  0.5 1 0  0.625 1 0  0.75 1 0  0.875 1 0  1 1 0  </DataArray>
</Points>
<Cells>
<DataArray  type="UInt32"  Name="connectivity"  format="ascii">0 1 10  0 9 10  1 2 11  1 10 11  2 3 12  2 11 12  3 4 13  3 12 13  4 5 14  4 13 14  5 6 15  5 14 15  6 7 16  6 15 16  7 8 17  7 16 17  9 10 19  9 18 19  10 11 20  10 19 20  11 12 21  11 20 21  12 13 22  12 21 22  13 14 23  13 22 23  14 15 24  14 23 24  15 16 25  15 24 25  16 17 26  16 25 26  18 19 28  18 27 28  19 20 29  19 28 29  20 21 30  20 29 30  21 22 31  21 30 31  22 23 32  22 31 32  23 24 33  23 32 33  24 25 34  24 33 34  25 26 35  25 34 35  27 28 37  27 36 37  28 29 38  28 37 38  29 30 39  29 38 39  30 31 40  30 39 40  31 32 41  31 40 41  32 33 42  32 41 42  33 34 43  33 42 43  34 35 44  34 43 44  36 37 46  36 45 46  37 38 47  37 46 47  38 39 48  38 47 48  39 40 49  39 48 49  40 41 50  40 49 50  41 42 51  41 50 51  42 43 52  42 51 52  43 44 53  43 52 53  45 46 55  45 54 55  46 47 56  46 55 56  47 48 57  47 56 57  48 49 58  48 57 58  49 50 59  49 58 59  50 51 60  50 59 60  51 52 61  51 60 61  52 53 62  52 61 62  54 55 64  54 63 64  55 56 65  55 64 65  56 57 66  56 65 66  57 58 67  57 66 67  58 59 68  58 67 68  59 60 69  59 68 69  60 61 70  60 69 70  61 62 71  61 70 71  63 64 73  63 72 73  64 65 74  64 73 74  65 66 75  65 74 75  66 67 76  66 75 76  67 68 77  67 76 77  68 69 78  68 77 78  69 70 79  69 78 79  70 71 80  70 79 80  </DataArray>
<DataArray  type="UInt32"  Name="offsets"  format="ascii">3 6 9 12 15 18 21 24 27 30 33 36 39 42 45 48 51 54 57 60 63 66 69 72 75 78 81 84 87 90 93 96 99 102 105 108 111 114 117 120 123 126 129 132 135 138 141 144 147 150 153 156 159 162 165 168 171 174 177 180 183 186 189 192 195 198 201 204 207 210 213 216 219 222 225 228 231 234 237 240 243 246 249 252 255 258 261 264 267 270 273 276 279 282 285 288 291 294 297 300 303 306 309 312 315 318 321 324 327 330 333 336 339 342 345 348 351 354 357 360 363 366 369 372 375 378 381 384 </DataArray>
<DataArray  type="UInt8"  Name="types"  format="ascii">5 5 5 5 5 5 5 5 5 5 5 5 5 5 5 5 5 5 5 5 5 5 5 5 5 5 5 5 5 5 5 5 5 5 5 5 5 5 5 5 5 5 5 5 5 5 5 5 5 5 5 5 5 5 5 5 5 5 5 5 5 5 5 5 5 5 5 5 5 5 5 5 5 5 5 5 5 5 5 5 5 5 5 5 5 5 5 5 5 5 5 5 5 5 5 5 5 5 5 5 5 5 5 5 5 5 5 5 5 5 5 5 5 5 5 5 5 5 5 5 5 5 5 5 5 5 5 5 </DataArray>
</Cells>
<<<<<<< HEAD
<PointData  Scalars="f_1156"> 
<DataArray  type="Float64"  Name="f_1156"  format="ascii">0.0000000000000000e+00  0.0000000000000000e+00  0.0000000000000000e+00  0.0000000000000000e+00  0.0000000000000000e+00  0.0000000000000000e+00  0.0000000000000000e+00  0.0000000000000000e+00  0.0000000000000000e+00  0.0000000000000000e+00  0.0000000000000000e+00  0.0000000000000000e+00  0.0000000000000000e+00  0.0000000000000000e+00  0.0000000000000000e+00  0.0000000000000000e+00  0.0000000000000000e+00  0.0000000000000000e+00  0.0000000000000000e+00  0.0000000000000000e+00  0.0000000000000000e+00  0.0000000000000000e+00  0.0000000000000000e+00  0.0000000000000000e+00  0.0000000000000000e+00  0.0000000000000000e+00  0.0000000000000000e+00  0.0000000000000000e+00  0.0000000000000000e+00  0.0000000000000000e+00  0.0000000000000000e+00  0.0000000000000000e+00  0.0000000000000000e+00  0.0000000000000000e+00  0.0000000000000000e+00  0.0000000000000000e+00  0.0000000000000000e+00  0.0000000000000000e+00  0.0000000000000000e+00  0.0000000000000000e+00  0.0000000000000000e+00  0.0000000000000000e+00  0.0000000000000000e+00  0.0000000000000000e+00  0.0000000000000000e+00  0.0000000000000000e+00  0.0000000000000000e+00  0.0000000000000000e+00  0.0000000000000000e+00  0.0000000000000000e+00  0.0000000000000000e+00  0.0000000000000000e+00  0.0000000000000000e+00  0.0000000000000000e+00  0.0000000000000000e+00  0.0000000000000000e+00  0.0000000000000000e+00  0.0000000000000000e+00  0.0000000000000000e+00  0.0000000000000000e+00  0.0000000000000000e+00  0.0000000000000000e+00  0.0000000000000000e+00  0.0000000000000000e+00  0.0000000000000000e+00  0.0000000000000000e+00  1.5455435864251019e-04  6.0592610671792997e-04  1.3454492103788546e-03  2.3588475378679931e-03  3.6264416146331974e-03  5.1234340181717840e-03  6.8202697438917142e-03  8.6830669036984422e-03  1.0674112205232565e-02  1.2752414813070993e-02  1.4874311423763480e-02  1.6994114704062462e-02  1.9064796653901903e-02  2.1038697970900723e-02  2.2868254116127831e-02  2.4506728518010844e-02  2.5908943204423763e-02  2.7031997125985210e-02  2.7835962525834836e-02  2.8284549922538552e-02  2.8345732601866593e-02  2.7992321955033806e-02  2.7202485552887450e-02  2.5960200498826504e-02  2.4255635353863918e-02  2.2085454763408355e-02  1.9453041830224640e-02  1.6368634259403245e-02  1.2849371339050114e-02  8.9192499014852395e-03  4.6089885232111849e-03  -4.4199647700384302e-05  -4.9969239111971554e-03  -1.0200020228654093e-02  -1.5599038870789159e-02  -2.1134810669489152e-02  -2.6744086019809946e-02  -3.2360239815383031e-02  -3.7914034609792382e-02  -4.3334433488994614e-02  -4.8549453425713193e-02  -5.3487049275576661e-02  -5.8076018073923319e-02  -6.2246912909425071e-02  -6.5932955391651601e-02  -6.9070935597333502e-02  -7.1602088380002121e-02  -7.3472935059450281e-02  -7.4636079772568739e-02  -7.5050950165556851e-02  -7.4684472637613145e-02  -7.3511673007147699e-02  -7.1516194264017188e-02  -6.8690723999608336e-02  -6.5037325183389519e-02  -6.0567665215162006e-02  -5.5303139708099407e-02  -4.9274889442960747e-02  -4.2523711869429770e-02  -3.5099873707758668e-02  -2.7062842341471154e-02  -1.8480982387442616e-02  -9.4313494514863018e-03  -2.4007276089926232e-17  0.0000000000000000e+00  3.0698767351352159e-04  1.2047619252238289e-03  2.6760843193026299e-03  4.6925499744513875e-03  7.2149989483887298e-03  1.0194084149473152e-02  1.3570988475168987e-02  1.7278281946844613e-02  2.1240907791781061e-02  2.5377284737849639e-02  2.9600511254951733e-02  3.3819656118367313e-02  3.7941118499638833e-02  4.1870039824809073e-02  4.5511748889957369e-02  4.8773221199843363e-02  5.1564533203930028e-02  5.3800292049144459e-02  5.5401021652700916e-02  5.6294486319076069e-02  5.6416933779122380e-02  5.5714240409809830e-02  5.4142942489908474e-02  5.1671138648949462e-02  4.8279250158734827e-02  4.3960627382178097e-02  3.8721992514368010e-02  3.2583710704497157e-02  2.5579883712219278e-02  1.7758262404774513e-02  9.1799766160275999e-03  -8.0916860237514464e-05  -9.9380651083509960e-03  -2.0293623481078837e-02  -3.1039226061536696e-02  -4.2057112583696966e-02  -5.3221400161862553e-02  -6.4399486262869454e-02  -7.5453567581555206e-02  -8.6242257872701761e-02  -9.6622286371418245e-02  -1.0645025721652179e-01  -1.1558444929519524e-01  -1.2388663516462406e-01  -1.3122389718967811e-01  -1.3747041877325925e-01  -1.4250922855342843e-01  -1.4623387570387178e-01  -1.4855001499981677e-01  -1.4937688110263789e-01  -1.4864863256752003e-01  -1.4631554738763863e-01  -1.4234505345456763e-01  -1.3672257913987018e-01  -1.2945221130348691e-01  -1.2055715045307067e-01  -1.1007995561052275e-01  -9.8082574901811853e-02  -8.4646162435144223e-02  -6.9870688646070711e-02  -5.3874361936560436e-02  -3.6792897429705339e-02  -1.8778695505067316e-02  -4.7783348987394388e-17  0.0000000000000000e+00  4.5591158748766245e-04  1.7908985089750478e-03  3.9793249819528882e-03  6.9789397215433979e-03  1.0731487872065492e-02  1.5163555850495312e-02  2.0187638241433690e-02  2.5703413011197294e-02  3.1599208602582321e-02  3.7753643963706472e-02  4.4037420285682319e-02  5.0315241201558981e-02  5.6447836458704638e-02  6.2294062639086649e-02  6.7713053386491889e-02  7.2566390819098991e-02  7.6720269371939903e-02  8.0047623231819992e-02  8.2430188800647730e-02  8.3760474249032282e-02  8.3943609194725377e-02  8.2899048850199455e-02  8.0562108615699637e-02  7.6885307030990210e-02  7.1839497218876322e-02  6.5414769431605610e-02  5.7621110019065461e-02  4.8488805045094750e-02  3.8068579850254428e-02  2.6431469062557566e-02  1.3668414853172455e-02  -1.1040541574527875e-04  -1.4776517639208977e-02  -3.0184347660729291e-02  -4.6172665078118229e-02  -6.2566259862756324e-02  -7.9177834460232771e-02  -9.5810091188274008e-02  -1.1225799210962931e-01  -1.2831116616518459e-01  -1.4375643623768794e-01  -1.5838043700486182e-01  -1.7197229295731503e-01  -1.8432632482185637e-01  -1.9524475186102130e-01  -2.0454035712807431e-01  -2.1203908275196903e-01  -2.1758252271459519e-01  -2.2103028136194533e-01  -2.2226216706329799e-01  -2.2118019198783867e-01  -2.1771035090366619e-01  -2.1180415421034979e-01  -2.0343989308946095e-01  -1.9262361770192071e-01  -1.7938981279794095e-01  -1.6380175898531954e-01  -1.4595157232623282e-01  -1.2595992006829723e-01  -1.0397541634290237e-01  -8.0173708456978673e-02  -5.4756270142520318e-02  -2.7948914607650924e-02  -7.1099242113078345e-17  0.0000000000000000e+00  5.9996237616054694e-04  2.3588310074762666e-03  5.2428276811401784e-03  9.1962694194349850e-03  1.4142374957780278e-02  1.9984378280310987e-02  2.6606934898649327e-02  3.3877802773022422e-02  4.1649776207359185e-02  4.9762847743353739e-02  5.8046570074227463e-02  6.6322587332738811e-02  7.4407302813153609e-02  8.2114648291871470e-02  8.9258918640258686e-02  9.5657634393575233e-02  1.0113439436818129e-01  1.0552168031025271e-01  1.0866357591972076e-01  1.1041836341762049e-01  1.1066096210728014e-01  1.0928517510591466e-01  1.0620571257468195e-01  1.0135996232792642e-01  9.4709481629004583e-02  8.6241187246412096e-02  7.5968224413395763e-02  6.3930499167083890e-02  5.0194862592587770e-02  3.4854939720760779e-02  1.8030600171848810e-02  -1.3292794546525833e-04  -1.9466294934867338e-02  -3.9777606863472072e-02  -6.0854328695385318e-02  -8.2465494357188557e-02  -1.0436420088921181e-01  -1.2629036007599348e-01  -1.4797367747118886e-01  -1.6913682557814166e-01  -1.8949877515822675e-01  -2.0877824625067715e-01  -2.2669723853141671e-01  -2.4298459914135509e-01  -2.5737958509831960e-01  -2.6963537688965217e-01  -2.7952249983370409e-01  -2.8683211030585898e-01  -2.9137910494895963e-01  -2.9300501252421679e-01  -2.9158063009867741e-01  -2.8700836779695954e-01  -2.7922426935226935e-01  -2.6819967915789256e-01  -2.5394253043206200e-01  -2.3649823344934576e-01  -2.1595014755100125e-01  -1.9241962579860017e-01  -1.6606562659843802e-01  -1.3708389211580346e-01  -1.0570569797293668e-01  -7.2196180332768117e-02  -3.6852239954007243e-02  -9.3730410670414078e-17  0.0000000000000000e+00  7.3781510456400715e-04  2.9032137144197963e-03  6.4546076190322467e-03  1.1323425337101165e-02  1.7415105278121464e-02  2.4610467153889301e-02  3.2767444010364202e-02  4.1723152586184267e-02  5.1296275309124610e-02  6.1289723168728473e-02  7.1493545001937150e-02  8.1688045444300125e-02  9.1647070972105518e-02  1.0114142112620274e-01  1.0994234019537506e-01  1.1782504336898481e-01  1.2457223066345026e-01  1.2997754179280330e-01  1.3384890559722656e-01  1.3601173865842198e-01  1.3631194931015403e-01  1.3461870537803919e-01  1.3082692663236478e-01  1.2485946608227635e-01  1.1666894784409637e-01  1.0623923333986832e-01  9.3586491979247927e-02  7.8759857198316116e-02  6.1841653717947156e-02  4.2947187085266528e-02  2.2224091913323467e-02  -1.4875932582218135e-04  -2.3962779634560432e-02  -4.8981610205242034e-02  -7.4943464452556161e-02  -1.0156385014571777e-01  -1.2853864150095606e-01  -1.5554746846270112e-01  -1.8225738611633877e-01  -2.0832678329051671e-01  -2.3340948596995964e-01  -2.5715900819749876e-01  -2.7923290073315249e-01  -2.9929714589272383e-01  -3.1703054573528294e-01  -3.3212905012925908e-01  -3.4430997121364421e-01  -3.5331603139126821e-01  -3.5891919324671601e-01  -3.6092422166451427e-01  -3.5917193092176614e-01  -3.5354207262494669e-01  -3.4395582402763969e-01  -3.3037784047583713e-01  -3.1281784044280142e-01  -2.9133169679134585e-01  -2.6602201347402715e-01  -2.3703817274971845e-01  -2.0457584396666548e-01  -1.6887595066197000e-01  -1.3022309742681690e-01  -8.8943460415780634e-02  -4.5402143919757228e-02  -1.1545890413473923e-16  0.0000000000000000e+00  8.6819729875240207e-04  3.4189133611811570e-03  7.6031568248969630e-03  1.3340134237501057e-02  2.0518420251182692e-02  2.8997573620279025e-02  3.8610178227784821e-02  4.9164282869830961e-02  6.0446208347233119e-02  7.2223685612434210e-02  8.4249284357622314e-02  9.6264087558847369e-02  1.0800156415822787e-01  1.1919158931505126e-01  1.2956455951877793e-01  1.3885554836287856e-01  1.4680844794593539e-01  1.5318004070857019e-01  1.5774394703653732e-01  1.6029439515661884e-01  1.6064976171241988e-01  1.5865583391284441e-01  1.5418874726765847e-01  1.4715755663094196e-01  1.3750640252041821e-01  1.2521623942233165e-01  1.1030609797373538e-01  9.2833858476202583e-02  7.2896519075974636e-02  5.0629948074193944e-02  2.6208116137961836e-02  -1.5818940492529066e-04  -2.8223159564983950e-02  -5.7708252967054403e-02  -8.8304958116544319e-02  -1.1967800129653658e-01  -1.5146896693478223e-01  -1.8330029182018026e-01  -2.1477958949719736e-01  -2.4550425658664593e-01  -2.7506630873132110e-01  -3.0305739039488439e-01  -3.2907389990110969e-01  -3.5272216892317598e-01  -3.7362363415525807e-01  -3.9141993814110393e-01  -4.0577789621605914e-01  -4.1639426724475992e-01  -4.2300026731052992e-01  -4.2536576772052176e-01  -4.2330312162113631e-01  -4.1667056714281919e-01  -4.0537515928045670e-01  -3.8937518762228313e-01  -3.6868204251410536e-01  -3.4336149821766071e-01  -3.1353438800198569e-01  -2.7937665276266305e-01  -2.4111875149820086e-01  -1.9904442848318776e-01  -1.5348883783823378e-01  -1.0483603093551053e-01  -5.3515815617049337e-02  -1.3607546523598960e-16  0.0000000000000000e+00  9.8990201230117589e-04  3.9010601661608898e-03  8.6775573763909000e-03  1.5227161761835264e-02  2.3422662526995042e-02  3.3103714909020622e-02  4.4079170473041863e-02  5.6129862761296126e-02  6.9011812386685384e-02  8.2459810179137727e-02  9.6191332011301964e-02  1.0991073450962630e-01  1.2331367705088805e-01  1.3609171230197517e-01  1.4793698511961498e-01  1.5854697791976619e-01  1.6762923967557025e-01  1.7490603552197831e-01  1.8011885454016999e-01  1.8303271466100884e-01  1.8344020575041742e-01  1.8116521479982031e-01  1.7606628071001038e-01  1.6803953038738045e-01  1.5702115272187209e-01  1.4298937242959731e-01  1.2596589165981259e-01  1.0601677361847262e-01  8.3252749173820695e-02  5.7828934408714415e-02  2.9943954286385709e-02  -1.6152508285267333e-04  -3.2206845732031052e-02  -6.5873971542236426e-02  -1.0081064205885638e-01  -1.3663403518199060e-01  -1.7293490086881080e-01  -2.0928212175128139e-01  -2.4522765080375783e-01  -2.8031177096543614e-01  -3.1406861699613819e-01  -3.4603189588161226e-01  -3.7574073885758053e-01  -4.0274561563532230e-01  -4.2661423972085555e-01  -4.4693739285324541e-01  -4.6333459656216769e-01  -4.7545955966946196e-01  -4.8300533223395165e-01  -4.8570909895175790e-01  -4.8335654835490205e-01  -4.7578575826996555e-01  -4.6289054286463205e-01  -4.4462321217011808e-01  -4.2099670115905696e-01  -3.9208603219923205e-01  -3.5802908189190519e-01  -3.1902663080848548e-01  -2.7534168229334310e-01  -2.2729804409886481e-01  -1.7527817395463882e-01  -1.1972029715032209e-01  -6.1114811124957633e-02  -1.5538154522060149e-16  0.0000000000000000e+00  1.1018001726903546e-03  4.3450961696342022e-03  9.6675886756167808e-03  1.6966500463627916e-02  2.6100065029932455e-02  3.6889582656973618e-02  4.9122017473291750e-02  6.2553102082131495e-02  7.6910909737456692e-02  9.1899847934904688e-02  1.0720502173256254e-01  1.2249691018807292e-01  1.3743629505688756e-01  1.5167937739256007e-01  1.6488301496951493e-01  1.7671001154502872e-01  1.8683438791690660e-01  1.9494656453149042e-01  2.0075838605933444e-01  2.0400791987764022e-01  2.0446396276565718e-01  2.0193019330666528e-01  1.9624891146315940e-01  1.8730431150761467e-01  1.7502523989658569e-01  1.5938739570982516e-01  1.4041493787105463e-01  1.1818147044658955e-01  9.2810384801366982e-02  6.4474545192981250e-02  3.3395312411329627e-02  -1.5909176808338022e-04  -3.5875868351707897e-02  -7.3400554013693428e-02  -1.1234053601546264e-01  -1.5226913434570655e-01  -1.9273020888243372e-01  -2.3324324242932870e-01  -2.7330884404822708e-01  -3.1241461127932357e-01  -3.5004128468352802e-01  -3.8566912372345979e-01  -4.1878442937934157e-01  -4.4888613612255357e-01  -4.7549239398350185e-01  -4.9814706048109147e-01  -5.1642602214932132e-01  -5.2994326631116173e-01  -5.3835662560924569e-01  -5.4137312059489962e-01  -5.3875382937750083e-01  -5.3031821791114075e-01  -5.1594786989597696e-01  -4.9558956144203703e-01  -4.6925763250873631e-01  -4.3703561460759749e-01  -3.9907708223710342e-01  -3.5560570388220142e-01  -3.0691447702424013e-01  -2.5336414032885202e-01  -1.9538076490998213e-01  -1.3345253531595597e-01  -6.8125739892818143e-02  -1.7319121598454612e-16  0.0000000000000000e+00  1.2028520981584216e-03  4.7468204073212259e-03  1.0563827774796496e-02  1.8541545718665033e-02  2.8525021418823331e-02  4.0318925036350477e-02  5.3690388471272478e-02  6.8372399019915236e-02  8.4067704184169964e-02  1.0045317720476984e-01  1.1718458681962718e-01  1.3390170936050036e-01  1.5023371666320076e-01  1.6580476943640807e-01  1.8023974275890456e-01  1.9317000829354922e-01  2.0423919664702711e-01  2.1310886308274959e-01  2.1946398051836727e-01  2.2301818540250135e-01  2.2351870465230098e-01  2.2075089531743580e-01  2.1454233297909092e-01  2.0476639004716266e-01  1.9134525102764610e-01  1.7425231842817809e-01  1.5351397017890941e-01  1.2921063718511042e-01  1.0147717780837254e-01  7.0502534601332670e-02  3.6528667395857951e-02  -1.5123423416124346e-04  -3.9195247153417059e-02  -8.0215898610474456e-02  -1.2278400834393879e-01  -1.6643315079571430e-01  -2.1066469130398974e-01  -2.5495334255074864e-01  -2.9875318050837807e-01  -3.4150405275571488e-01  -3.8263830639445412e-01  -4.2158775796695902e-01  -4.5779082381616726e-01  -4.9069972629604913e-01  -5.1978768917546747e-01  -5.4455603451698342e-01  -5.6454109327345559e-01  -5.7932084284059571e-01  -5.8852118683089438e-01  -5.9182179537867652e-01  -5.8896142832243381e-01  -5.7974266859908707e-01  -5.6403599907500557e-01  -5.4178316276660166e-01  -5.1299975389227170e-01  -4.7777699535765528e-01  -4.3628266700560986e-01  -3.8876115814721146e-01  -3.3553262741568179e-01  -2.7699126274173519e-01  -2.1360264416712044e-01  -1.4590022229363439e-01  -7.4480935515791380e-02  -1.8933296066261047e-16  0.0000000000000000e+00  1.2921180825917350e-03  5.1024305047905130e-03  1.1357741810710465e-02  1.9937257849790689e-02  3.0674335400627032e-02  4.3358899051371802e-02  5.7740494267380545e-02  7.3531937348193105e-02  9.0413515222895369e-02  1.0803768084584610e-01  1.2603418342495501e-01  1.4401556691884559e-01  1.6158296524993079e-01  1.7833211855992964e-01  1.9385953163365810e-01  2.0776869337778042e-01  2.1967627499291234e-01  2.2921822423924856e-01  2.3605567397375324e-01  2.3988058492496481e-01  2.4042104545451523e-01  2.3744615480017350e-01  2.3077042096704725e-01  2.2025760997707397e-01  2.0582398954233630e-01  1.8744091732190971e-01  1.6513673167636272e-01  1.3899791115762070e-01  1.0916947777182240e-01  7.5854628224513845e-02  3.9313586796707448e-02  -1.3831690373155125e-04  -4.2133332432838365e-02  -8.6254712790508919e-02  -1.3204084665246166e-01  -1.7899005762651732e-01  -2.2656602092206213e-01  -2.7420373964762551e-01  -3.2131601538968918e-01  -3.6730034086797070e-01  -4.1154613639652643e-01  -4.5344224668233968e-01  -4.9238461023329594e-01  -5.2778401038299982e-01  -5.5907381471638062e-01  -5.8571760853616905e-01  -6.0721662796517928e-01  -6.2311689934617898e-01  -6.3301599377711193e-01  -6.3656930888774532e-01  -6.3349579429933545e-01  -6.2358304256573660e-01  -6.0669167372240373e-01  -5.8275894879859891e-01  -5.5180155569902378e-01  -5.1391751964327603e-01  -4.6928719976210337e-01  -4.1817334338079126e-01  -3.6092017986354119e-01  -2.9795154654689637e-01  -2.2976805018155408e-01  -1.5694327838869226e-01  -8.0119086920976246e-02  -2.0365132542956942e-16  0.0000000000000000e+00  1.3687679542217373e-03  5.4085603071350689e-03  1.2041771679956221e-02  2.1140308934816627e-02  3.2527446532885106e-02  4.5980389653399338e-02  6.1233512124172731e-02  7.7982227486359385e-02  9.5887443291910929e-02  1.1458054110941572e-01  1.3366881778684547e-01  1.5274131737188174e-01  1.7137497779841349e-01  1.8914101207612108e-01  2.0561144032487746e-01  2.2036568661998496e-01  2.3299715328980228e-01  2.4311968505371515e-01  2.5037383621301890e-01  2.5443285600334109e-01  2.5500831016805597e-01  2.5185526078513543e-01  2.4477693133423681e-01  2.3362878987031946e-01  2.1832198991063409e-01  1.9882611616615714e-01  1.7517119047299526e-01  1.4744890210794528e-01  1.1581303600561867e-01  8.0479082122795018e-02  4.1723019207848294e-02  -1.2072358965026751e-04  -4.4662113609676396e-02  -9.1459146263759866e-02  -1.4002222754353519e-01  -1.8981926405020694e-01  -2.4028140792728286e-01  -2.9080939540927991e-01  -3.4078040967713547e-01  -3.8955539143701134e-01  -4.3648671420295304e-01  -4.8092613575112841e-01  -5.2223293269270055e-01  -5.5978212164829177e-01  -5.9297266814734695e-01  -6.2123558315931227e-01  -6.4404180711325998e-01  -6.6090978239124454e-01  -6.7141261758435977e-01  -6.7518475026344726e-01  -6.7192801960990256e-01  -6.6141706592957061e-01  -6.4350398078085891e-01  -6.1812213911347269e-01  -5.8528915335729026e-01  -5.4510889872675583e-01  -4.9777256901355860e-01  -4.4355873272055468e-01  -3.8283237043501822e-01  -3.1604288574303646e-01  -2.4372109365908173e-01  -1.6647520240588881e-01  -8.4985816361489150e-02  -2.1600841660550293e-16  0.0000000000000000e+00  1.4320895227622550e-03  5.6623131951519367e-03  1.2609406169567400e-02  2.2139212909909865e-02  3.4066630372752531e-02  4.8158292638919853e-02  6.4135962484517861e-02  8.1680586236413597e-02  1.0043695964124773e-01  1.2001894449159871e-01  1.4001516849521989e-01  1.5999513443312705e-01  1.7951565910725978e-01  1.9812755799837414e-01  2.1538248799804890e-01  2.3083985808833565e-01  2.4407371645525153e-01  2.5467952225587254e-01  2.6228071112141849e-01  2.6653496546538280e-01  2.6714010375502606e-01  2.6383950706718690e-01  2.5642700643820970e-01  2.4475116067645528e-01  2.2871886136680383e-01  2.0829820967836341e-01  1.8352061820177204e-01  1.5448210029093301e-01  1.2134371916103211e-01  8.4331179185794455e-02  4.3733552324911523e-02  -9.8856725406973344e-05  -4.6757492355544480e-02  -9.5779351902636048e-02  -1.4665157618242455e-01  -1.9881678122682866e-01  -2.5167907611071227e-01  -3.0461070266910856e-01  -3.5695922450081546e-01  -4.0805518503394311e-01  -4.5722014768616182e-01  -5.0377502537468855e-01  -5.4704860189551507e-01  -5.8638614406001499e-01  -6.2115800100367113e-01  -6.5076808580558687e-01  -6.7466213450200374e-01  -6.9233563875732362e-01  -7.0334135086611915e-01  -7.0729626338505458e-01  -7.0388797050198659e-01  -6.9288032419607948e-01  -6.7411830526758032e-01  -6.4753203734943166e-01  -6.1313988096681615e-01  -5.7105055449459974e-01  -5.2146423936861708e-01  -4.6467263802730535e-01  -4.0105796468061589e-01  -3.3109086101103324e-01  -2.5532724119876493e-01  -1.7440408312149019e-01  -8.9034195098415495e-02  -2.2628522864731353e-16  0.0000000000000000e+00  1.4814958398254548e-03  5.8612907791698353e-03  1.3055245846641294e-02  2.2924437739344331e-02  3.5277171074106786e-02  4.9871758640302341e-02  6.6420033913636309e-02  8.4591550619048939e-02  1.0401841520687032e-01  1.2430068983394363e-01  1.4501229592394377e-01  1.6570734170992088e-01  1.8592679141816493e-01  2.0520538900773438e-01  2.2307874569529987e-01  2.3909049791518308e-01  2.5279944092637513e-01  2.6378654300175963e-01  2.7166174602796955e-01  2.7607046040067618e-01  2.7669966530025575e-01  2.7328352974253983e-01  2.6560847517438463e-01  2.5351760676168672e-01  2.3691444783047805e-01  2.1576592008584927e-01  1.9010452115561752e-01  1.6002966058529375e-01  1.2570812553748884e-01  8.7373658004185159e-02  4.5325636204024411e-02  -7.3136120291421422e-05  -4.8399517695299960e-02  -9.9173969177727195e-02  -1.5186530745784513e-01  -2.0589622771737984e-01  -2.6064953615802305e-01  -3.1547502690827228e-01  -3.6969692791036762e-01  -4.2262183269409703e-01  -4.7354702796009734e-01  -5.2176912090945515e-01  -5.6659286534949738e-01  -6.0734008184424437e-01  -6.4335856461320196e-01  -6.7403086655940248e-01  -6.9878285374825344e-01  -7.1709192187886350e-01  -7.2849476978403072e-01  -7.3259462874828907e-01  -7.2906785141214048e-01  -7.1766977018926459e-01  -6.9823974240097986e-01  -6.7070530765519376e-01  -6.3508539228012528e-01  -5.9149250576735590e-01  -5.4013388508051818e-01  -4.8131155422983002e-01  -4.1542127858136907e-01  -3.4295040584170949e-01  -2.6447459841144316e-01  -1.8065347470785723e-01  -9.2225189987309109e-02  -2.3438279023716148e-16  0.0000000000000000e+00  1.5165312080689527e-03  6.0036167050349296e-03  1.3375056108244890e-02  2.3488498592134109e-02  3.6147504795989535e-02  5.1104395889484656e-02  6.8063853170339375e-02  8.6687221861723215e-02  1.0659746362954005e-01  1.2738469386147705e-01  1.4861223204370366e-01  1.6982308673373570e-01  1.9054679073969091e-01  2.1030649725353270e-01  2.2862624390740616e-01  2.4503828907868430e-01  2.5909042329392351e-01  2.7035315829806428e-01  2.7842669726996871e-01  2.8294759177220569e-01  2.8359499430213714e-01  2.8009641972818905e-01  2.7223293440319302e-01  2.5984369828273896e-01  2.4282979287205930e-01  2.2115727619085321e-01  1.9485941509047822e-01  1.6403805507548438e-01  1.2886409816017849e-01  8.9577070109140677e-02  4.6483769544776461e-02  -4.3997276753939670e-05  -4.9572580849214017e-02  -1.0161052549963484e-01  -1.5561344163881349e-01  -2.1098966492343366e-01  -2.6710664382862459e-01  -3.2329798748598321e-01  -3.7887109671869373e-01  -4.3311529311319885e-01  -4.8531035380713583e-01  -5.3473535353739932e-01  -5.8067771046255712e-01  -6.2244232841590574e-01  -6.5936072561703019e-01  -6.9080003851112060e-01  -7.1617178934375159e-01  -7.3494030732725635e-01  -7.4663069581045505e-01  -7.5083624170853303e-01  -7.4722516855256171e-01  -7.3554664082962828e-01  -7.1563593474586373e-01  -6.8741869907792630e-01  -6.5091423929923919e-01  -6.0623776857458200e-01  -5.5360158040333585e-01  -4.9331510954111824e-01  -4.2578386021785913e-01  -3.5150719347065168e-01  -2.7107497848929185e-01  -1.8516312609262181e-01  -9.4528035672348354e-02  -2.4022311743035962e-16  0.0000000000000000e+00  1.5368758860590968e-03  6.0879553526185740e-03  1.3565808894339568e-02  2.3826031147191472e-02  3.6669332564809573e-02  5.1844429828920978e-02  6.9051697836841633e-02  8.7947536259580558e-02  1.0814939438134667e-01  1.2924138932840362e-01  1.5078044497599802e-01  1.7230287188282262e-01  1.9333130262819206e-01  2.1338189199139543e-01  2.3197168757900252e-01  2.4862607382207180e-01  2.6288619076798714e-01  2.7431622880254747e-01  2.8251050136556366e-01  2.8710019986000862e-01  2.8775973828164297e-01  2.8421259957693767e-01  2.7623660132480915e-01  2.6366850497035671e-01  2.4640790044230157e-01  2.2442030647520145e-01  1.9773943623589879e-01  1.6646858781509363e-01  1.3078112967558583e-01  9.0920062125874779e-02  4.7196647185182489e-02  -1.1889309805383374e-05  -5.0265567968186604e-02  -1.0306575163591220e-01  -1.5786008863762649e-01  -2.1404825451069293e-01  -2.7098843287681512e-01  -3.2800446631035884e-01  -3.8439359900753384e-01  -4.3943472484870055e-01  -4.9239704718040855e-01  -5.4254905041689205e-01  -5.8916767845574536e-01  -6.3154761098738177e-01  -6.6901052610884559e-01  -7.0091423627339144e-01  -7.2666158454304319e-01  -7.4570898937674923e-01  -7.5757452877925457e-01  -7.6184545853637520e-01  -7.5818506443925859e-01  -7.4633875480574852e-01  -7.2613930717889785e-01  -6.9751119174484166e-01  -6.6047390367777203e-01  -6.1514424718732108e-01  -5.6173752540455535e-01  -5.0056760227652675e-01  -4.3204581522114360e-01  -3.5667873028986646e-01  -2.7506474485812205e-01  -1.8788955626721049e-01  -9.5920528227175395e-02  -2.4374996468338917e-16  0.0000000000000000e+00  1.5423494478965503e-03  6.1135252553477801e-03  1.3625712675224767e-02  2.3933844337736172e-02  3.6837701523633415e-02  5.2084818056922097e-02  6.9374149486891412e-02  8.8360460331140728e-02  1.0865937282442593e-01  1.2985301197220708e-01  1.5149617385069478e-01  1.7312293712176319e-01  1.9425363172673837e-01  2.1440207376365081e-01  2.3308297169885156e-01  2.4981940636684122e-01  2.6415028570630117e-01  2.7563767489003277e-01  2.8387390343659730e-01  2.8848835303916509e-01  2.8915383318810978e-01  2.8559245616661005e-01  2.7758092861205991e-01  2.6495518350053249e-01  2.4761428405103164e-01  2.2552353957651605e-01  1.9871678263101489e-01  1.6729776681199898e-01  1.3144065515794753e-01  9.1389580111596674e-02  4.7457267370808812e-02  2.2727489141675834e-05  -5.0471969318016875e-02  -1.0352580819645817e-01  -1.5858379625047878e-01  -2.1504273152512327e-01  -2.7225771473699473e-01  -3.2954933428318006e-01  -3.8621144595854379e-01  -4.4151946055896657e