<?xml version="1.0"?>
<VTKFile type="UnstructuredGrid"  version="0.1"  >
<UnstructuredGrid>
<Piece  NumberOfPoints="1089" NumberOfCells="2048">
<Points>
<DataArray  type="Float64"  NumberOfComponents="3"  format="ascii">0 0 0  0.03125 0 0  0.0625 0 0  0.09375 0 0  0.125 0 0  0.15625 0 0  0.1875 0 0  0.21875 0 0  0.25 0 0  0.28125 0 0  0.3125 0 0  0.34375 0 0  0.375 0 0  0.40625 0 0  0.4375 0 0  0.46875 0 0  0.5 0 0  0.53125 0 0  0.5625 0 0  0.59375 0 0  0.625 0 0  0.65625 0 0  0.6875 0 0  0.71875 0 0  0.75 0 0  0.78125 0 0  0.8125 0 0  0.84375 0 0  0.875 0 0  0.90625 0 0  0.9375 0 0  0.96875 0 0  1 0 0  0 0.03125 0  0.03125 0.03125 0  0.0625 0.03125 0  0.09375 0.03125 0  0.125 0.03125 0  0.15625 0.03125 0  0.1875 0.03125 0  0.21875 0.03125 0  0.25 0.03125 0  0.28125 0.03125 0  0.3125 0.03125 0  0.34375 0.03125 0  0.375 0.03125 0  0.40625 0.03125 0  0.4375 0.03125 0  0.46875 0.03125 0  0.5 0.03125 0  0.53125 0.03125 0  0.5625 0.03125 0  0.59375 0.03125 0  0.625 0.03125 0  0.65625 0.03125 0  0.6875 0.03125 0  0.71875 0.03125 0  0.75 0.03125 0  0.78125 0.03125 0  0.8125 0.03125 0  0.84375 0.03125 0  0.875 0.03125 0  0.90625 0.03125 0  0.9375 0.03125 0  0.96875 0.03125 0  1 0.03125 0  0 0.0625 0  0.03125 0.0625 0  0.0625 0.0625 0  0.09375 0.0625 0  0.125 0.0625 0  0.15625 0.0625 0  0.1875 0.0625 0  0.21875 0.0625 0  0.25 0.0625 0  0.28125 0.0625 0  0.3125 0.0625 0  0.34375 0.0625 0  0.375 0.0625 0  0.40625 0.0625 0  0.4375 0.0625 0  0.46875 0.0625 0  0.5 0.0625 0  0.53125 0.0625 0  0.5625 0.0625 0  0.59375 0.0625 0  0.625 0.0625 0  0.65625 0.0625 0  0.6875 0.0625 0  0.71875 0.0625 0  0.75 0.0625 0  0.78125 0.0625 0  0.8125 0.0625 0  0.84375 0.0625 0  0.875 0.0625 0  0.90625 0.0625 0  0.9375 0.0625 0  0.96875 0.0625 0  1 0.0625 0  0 0.09375 0  0.03125 0.09375 0  0.0625 0.09375 0  0.09375 0.09375 0  0.125 0.09375 0  0.15625 0.09375 0  0.1875 0.09375 0  0.21875 0.09375 0  0.25 0.09375 0  0.28125 0.09375 0  0.3125 0.09375 0  0.34375 0.09375 0  0.375 0.09375 0  0.40625 0.09375 0  0.4375 0.09375 0  0.46875 0.09375 0  0.5 0.09375 0  0.53125 0.09375 0  0.5625 0.09375 0  0.59375 0.09375 0  0.625 0.09375 0  0.65625 0.09375 0  0.6875 0.09375 0  0.71875 0.09375 0  0.75 0.09375 0  0.78125 0.09375 0  0.8125 0.09375 0  0.84375 0.09375 0  0.875 0.09375 0  0.90625 0.09375 0  0.9375 0.09375 0  0.96875 0.09375 0  1 0.09375 0  0 0.125 0  0.03125 0.125 0  0.0625 0.125 0  0.09375 0.125 0  0.125 0.125 0  0.15625 0.125 0  0.1875 0.125 0  0.21875 0.125 0  0.25 0.125 0  0.28125 0.125 0  0.3125 0.125 0  0.34375 0.125 0  0.375 0.125 0  0.40625 0.125 0  0.4375 0.125 0  0.46875 0.125 0  0.5 0.125 0  0.53125 0.125 0  0.5625 0.125 0  0.59375 0.125 0  0.625 0.125 0  0.65625 0.125 0  0.6875 0.125 0  0.71875 0.125 0  0.75 0.125 0  0.78125 0.125 0  0.8125 0.125 0  0.84375 0.125 0  0.875 0.125 0  0.90625 0.125 0  0.9375 0.125 0  0.96875 0.125 0  1 0.125 0  0 0.15625 0  0.03125 0.15625 0  0.0625 0.15625 0  0.09375 0.15625 0  0.125 0.15625 0  0.15625 0.15625 0  0.1875 0.15625 0  0.21875 0.15625 0  0.25 0.15625 0  0.28125 0.15625 0  0.3125 0.15625 0  0.34375 0.15625 0  0.375 0.15625 0  0.40625 0.15625 0  0.4375 0.15625 0  0.46875 0.15625 0  0.5 0.15625 0  0.53125 0.15625 0  0.5625 0.15625 0  0.59375 0.15625 0  0.625 0.15625 0  0.65625 0.15625 0  0.6875 0.15625 0  0.71875 0.15625 0  0.75 0.15625 0  0.78125 0.15625 0  0.8125 0.15625 0  0.84375 0.15625 0  0.875 0.15625 0  0.90625 0.15625 0  0.9375 0.15625 0  0.96875 0.15625 0  1 0.15625 0  0 0.1875 0  0.03125 0.1875 0  0.0625 0.1875 0  0.09375 0.1875 0  0.125 0.1875 0  0.15625 0.1875 0  0.1875 0.1875 0  0.21875 0.1875 0  0.25 0.1875 0  0.28125 0.1875 0  0.3125 0.1875 0  0.34375 0.1875 0  0.375 0.1875 0  0.40625 0.1875 0  0.4375 0.1875 0  0.46875 0.1875 0  0.5 0.1875 0  0.53125 0.1875 0  0.5625 0.1875 0  0.59375 0.1875 0  0.625 0.1875 0  0.65625 0.1875 0  0.6875 0.1875 0  0.71875 0.1875 0  0.75 0.1875 0  0.78125 0.1875 0  0.8125 0.1875 0  0.84375 0.1875 0  0.875 0.1875 0  0.90625 0.1875 0  0.9375 0.1875 0  0.96875 0.1875 0  1 0.1875 0  0 0.21875 0  0.03125 0.21875 0  0.0625 0.21875 0  0.09375 0.21875 0  0.125 0.21875 0  0.15625 0.21875 0  0.1875 0.21875 0  0.21875 0.21875 0  0.25 0.21875 0  0.28125 0.21875 0  0.3125 0.21875 0  0.34375 0.21875 0  0.375 0.21875 0  0.40625 0.21875 0  0.4375 0.21875 0  0.46875 0.21875 0  0.5 0.21875 0  0.53125 0.21875 0  0.5625 0.21875 0  0.59375 0.21875 0  0.625 0.21875 0  0.65625 0.21875 0  0.6875 0.21875 0  0.71875 0.21875 0  0.75 0.21875 0  0.78125 0.21875 0  0.8125 0.21875 0  0.84375 0.21875 0  0.875 0.21875 0  0.90625 0.21875 0  0.9375 0.21875 0  0.96875 0.21875 0  1 0.21875 0  0 0.25 0  0.03125 0.25 0  0.0625 0.25 0  0.09375 0.25 0  0.125 0.25 0  0.15625 0.25 0  0.1875 0.25 0  0.21875 0.25 0  0.25 0.25 0  0.28125 0.25 0  0.3125 0.25 0  0.34375 0.25 0  0.375 0.25 0  0.40625 0.25 0  0.4375 0.25 0  0.46875 0.25 0  0.5 0.25 0  0.53125 0.25 0  0.5625 0.25 0  0.59375 0.25 0  0.625 0.25 0  0.65625 0.25 0  0.6875 0.25 0  0.71875 0.25 0  0.75 0.25 0  0.78125 0.25 0  0.8125 0.25 0  0.84375 0.25 0  0.875 0.25 0  0.90625 0.25 0  0.9375 0.25 0  0.96875 0.25 0  1 0.25 0  0 0.28125 0  0.03125 0.28125 0  0.0625 0.28125 0  0.09375 0.28125 0  0.125 0.28125 0  0.15625 0.28125 0  0.1875 0.28125 0  0.21875 0.28125 0  0.25 0.28125 0  0.28125 0.28125 0  0.3125 0.28125 0  0.34375 0.28125 0  0.375 0.28125 0  0.40625 0.28125 0  0.4375 0.28125 0  0.46875 0.28125 0  0.5 0.28125 0  0.53125 0.28125 0  0.5625 0.28125 0  0.59375 0.28125 0  0.625 0.28125 0  0.65625 0.28125 0  0.6875 0.28125 0  0.71875 0.28125 0  0.75 0.28125 0  0.78125 0.28125 0  0.8125 0.28125 0  0.84375 0.28125 0  0.875 0.28125 0  0.90625 0.28125 0  0.9375 0.28125 0  0.96875 0.28125 0  1 0.28125 0  0 0.3125 0  0.03125 0.3125 0  0.0625 0.3125 0  0.09375 0.3125 0  0.125 0.3125 0  0.15625 0.3125 0  0.1875 0.3125 0  0.21875 0.3125 0  0.25 0.3125 0  0.28125 0.3125 0  0.3125 0.3125 0  0.34375 0.3125 0  0.375 0.3125 0  0.40625 0.3125 0  0.4375 0.3125 0  0.46875 0.3125 0  0.5 0.3125 0  0.53125 0.3125 0  0.5625 0.3125 0  0.59375 0.3125 0  0.625 0.3125 0  0.65625 0.3125 0  0.6875 0.3125 0  0.71875 0.3125 0  0.75 0.3125 0  0.78125 0.3125 0  0.8125 0.3125 0  0.84375 0.3125 0  0.875 0.3125 0  0.90625 0.3125 0  0.9375 0.3125 0  0.96875 0.3125 0  1 0.3125 0  0 0.34375 0  0.03125 0.34375 0  0.0625 0.34375 0  0.09375 0.34375 0  0.125 0.34375 0  0.15625 0.34375 0  0.1875 0.34375 0  0.21875 0.34375 0  0.25 0.34375 0  0.28125 0.34375 0  0.3125 0.34375 0  0.34375 0.34375 0  0.375 0.34375 0  0.40625 0.34375 0  0.4375 0.34375 0  0.46875 0.34375 0  0.5 0.34375 0  0.53125 0.34375 0  0.5625 0.34375 0  0.59375 0.34375 0  0.625 0.34375 0  0.65625 0.34375 0  0.6875 0.34375 0  0.71875 0.34375 0  0.75 0.34375 0  0.78125 0.34375 0  0.8125 0.34375 0  0.84375 0.34375 0  0.875 0.34375 0  0.90625 0.34375 0  0.9375 0.34375 0  0.96875 0.34375 0  1 0.34375 0  0 0.375 0  0.03125 0.375 0  0.0625 0.375 0  0.09375 0.375 0  0.125 0.375 0  0.15625 0.375 0  0.1875 0.375 0  0.21875 0.375 0  0.25 0.375 0  0.28125 0.375 0  0.3125 0.375 0  0.34375 0.375 0  0.375 0.375 0  0.40625 0.375 0  0.4375 0.375 0  0.46875 0.375 0  0.5 0.375 0  0.53125 0.375 0  0.5625 0.375 0  0.59375 0.375 0  0.625 0.375 0  0.65625 0.375 0  0.6875 0.375 0  0.71875 0.375 0  0.75 0.375 0  0.78125 0.375 0  0.8125 0.375 0  0.84375 0.375 0  0.875 0.375 0  0.90625 0.375 0  0.9375 0.375 0  0.96875 0.375 0  1 0.375 0  0 0.40625 0  0.03125 0.40625 0  0.0625 0.40625 0  0.09375 0.40625 0  0.125 0.40625 0  0.15625 0.40625 0  0.1875 0.40625 0  0.21875 0.40625 0  0.25 0.40625 0  0.28125 0.40625 0  0.3125 0.40625 0  0.34375 0.40625 0  0.375 0.40625 0  0.40625 0.40625 0  0.4375 0.40625 0  0.46875 0.40625 0  0.5 0.40625 0  0.53125 0.40625 0  0.5625 0.40625 0  0.59375 0.40625 0  0.625 0.40625 0  0.65625 0.40625 0  0.6875 0.40625 0  0.71875 0.40625 0  0.75 0.40625 0  0.78125 0.40625 0  0.8125 0.40625 0  0.84375 0.40625 0  0.875 0.40625 0  0.90625 0.40625 0  0.9375 0.40625 0  0.96875 0.40625 0  1 0.40625 0  0 0.4375 0  0.03125 0.4375 0  0.0625 0.4375 0  0.09375 0.4375 0  0.125 0.4375 0  0.15625 0.4375 0  0.1875 0.4375 0  0.21875 0.4375 0  0.25 0.4375 0  0.28125 0.4375 0  0.3125 0.4375 0  0.34375 0.4375 0  0.375 0.4375 0  0.40625 0.4375 0  0.4375 0.4375 0  0.46875 0.4375 0  0.5 0.4375 0  0.53125 0.4375 0  0.5625 0.4375 0  0.59375 0.4375 0  0.625 0.4375 0  0.65625 0.4375 0  0.6875 0.4375 0  0.71875 0.4375 0  0.75 0.4375 0  0.78125 0.4375 0  0.8125 0.4375 0  0.84375 0.4375 0  0.875 0.4375 0  0.90625 0.4375 0  0.9375 0.4375 0  0.96875 0.4375 0  1 0.4375 0  0 0.46875 0  0.03125 0.46875 0  0.0625 0.46875 0  0.09375 0.46875 0  0.125 0.46875 0  0.15625 0.46875 0  0.1875 0.46875 0  0.21875 0.46875 0  0.25 0.46875 0  0.28125 0.46875 0  0.3125 0.46875 0  0.34375 0.46875 0  0.375 0.46875 0  0.40625 0.46875 0  0.4375 0.46875 0  0.46875 0.46875 0  0.5 0.46875 0  0.53125 0.46875 0  0.5625 0.46875 0  0.59375 0.46875 0  0.625 0.46875 0  0.65625 0.46875 0  0.6875 0.46875 0  0.71875 0.46875 0  0.75 0.46875 0  0.78125 0.46875 0  0.8125 0.46875 0  0.84375 0.46875 0  0.875 0.46875 0  0.90625 0.46875 0  0.9375 0.46875 0  0.96875 0.46875 0  1 0.46875 0  0 0.5 0  0.03125 0.5 0  0.0625 0.5 0  0.09375 0.5 0  0.125 0.5 0  0.15625 0.5 0  0.1875 0.5 0  0.21875 0.5 0  0.25 0.5 0  0.28125 0.5 0  0.3125 0.5 0  0.34375 0.5 0  0.375 0.5 0  0.40625 0.5 0  0.4375 0.5 0  0.46875 0.5 0  0.5 0.5 0  0.53125 0.5 0  0.5625 0.5 0  0.59375 0.5 0  0.625 0.5 0  0.65625 0.5 0  0.6875 0.5 0  0.71875 0.5 0  0.75 0.5 0  0.78125 0.5 0  0.8125 0.5 0  0.84375 0.5 0  0.875 0.5 0  0.90625 0.5 0  0.9375 0.5 0  0.96875 0.5 0  1 0.5 0  0 0.53125 0  0.03125 0.53125 0  0.0625 0.53125 0  0.09375 0.53125 0  0.125 0.53125 0  0.15625 0.53125 0  0.1875 0.53125 0  0.21875 0.53125 0  0.25 0.53125 0  0.28125 0.53125 0  0.3125 0.53125 0  0.34375 0.53125 0  0.375 0.53125 0  0.40625 0.53125 0  0.4375 0.53125 0  0.46875 0.53125 0  0.5 0.53125 0  0.53125 0.53125 0  0.5625 0.53125 0  0.59375 0.53125 0  0.625 0.53125 0  0.65625 0.53125 0  0.6875 0.53125 0  0.71875 0.53125 0  0.75 0.53125 0  0.78125 0.531
[...]
<PointData  Scalars="f_512"> 
<DataArray  type="Float64"  Name="f_512"  format="ascii">0.0000000000000000e+00  0.0000000000000000e+00  0.0000000000000000e+00  0.0000000000000000e+00  0.0000000000000000e+00  0.0000000000000000e+00  0.0000000000000000e+00  0.0000000000000000e+00  0.0000000000000000e+00  0.0000000000000000e+00  0.0000000000000000e+00  0.0000000000000000e+00  0.0000000000000000e+00  0.0000000000000000e+00  0.0000000000000000e+00  0.0000000000000000e+00  0.0000000000000000e+00  -0.0000000000000000e+00  -0.0000000000000000e+00  -0.0000000000000000e+00  -0.0000000000000000e+00  -0.0000000000000000e+00  -0.0000000000000000e+00  -0.0000000000000000e+00  -0.0000000000000000e+00  -0.0000000000000000e+00  -0.0000000000000000e+00  -0.0000000000000000e+00  -0.0000000000000000e+00  -0.0000000000000000e+00  -0.0000000000000000e+00  -0.0000000000000000e+00  -0.0000000000000000e+00  0.0000000000000000e+00  1.2505471670847040e-03  4.7712083356440688e-03  1.0291793624458747e-02  1.7380964976460786e-02  2.5471309345647782e-02  3.3892541359086689e-02  4.1911123708098366e-02  4.8774251774037360e-02  5.3755906628672710e-02  5.6202549735087592e-02  5.5576020396807944e-02  5.1491304718400063e-02  4.3747068396102776e-02  3.2347175425731935e-02  1.7511836122366942e-02  -3.2247839563942352e-04  -2.0514674557844725e-02  -4.2241978720230007e-02  -6.4533368756460291e-02  -8.6312143031643293e-02  -1.0644579287785415e-01  -1.2380094135900779e-01  -1.3730080727420826e-01  -1.4598246568094558e-01  -1.4905111728582812e-01  -1.4592865756876525e-01  -1.3629405993421095e-01  -1.2011347000622052e-01  -9.7658497653047113e-02  -6.9512157346841269e-02  -3.6563852228415142e-02  -4.7783347680335573e-17  0.0000000000000000e+00  2.4355638293395792e-03  9.3252730599475298e-03  2.0140224828071259e-02  3.4035289980071555e-02  4.9898242193312820e-02  6.6414842457385548e-02  8.2146523475493907e-02  9.5616647670617436e-02  1.0540083645401623e-01  1.1021661113932582e-01  1.0900756110958255e-01  1.0101746545972225e-01  8.5850232196212448e-02  6.3512165372413387e-02  3.4433896472374242e-02  -5.2971545274847081e-04  -4.0122344405207309e-02  -8.2731133997688416e-02  -1.2645221473872148e-01  -1.6917415315504675e-01  -2.0867573771333706e-01  -2.4273371458209472e-01  -2.6923548898676719e-01  -2.8629143777405802e-01  -2.9234135937036648e-01  -2.8624973304035450e-01  -2.6738487700335017e-01  -2.3567778799090044e-01  -1.9165742115052609e-01  -1.3646044808345920e-01  -7.1815093994358800e-02  -9.3730408106525972e-17  0.0000000000000000e+00  3.5137000879350054e-03  1.3495319659407500e-02  2.9178431020830162e-02  4.9337356431393663e-02  7.2358422321158827e-02  9.6334388684932104e-02  1.1917718530836793e-01  1.3874311183023330e-01  1.5296396674235294e-01  1.5997719607280064e-01  1.5824811559896648e-01  1.4667756530751688e-01  1.2468898965148532e-01  9.2289874654619991e-02  5.0103671389142658e-02  -6.3025953818220506e-04  -5.8089600532674764e-02  -1.1993422692404562e-01  -1.8340124234285660e-01  -2.4542605746074586e-01  -3.0278429558411463e-01  -3.5224815762712530e-01  -3.9075000984907360e-01  -4.1554541708946346e-01  -4.2436766484010602e-01  -4.1556601305180324e-01  -3.8822050496794092e-01  -3.4222710075431295e-01  -2.7834818214988244e-01  -1.9822500288325326e-01  -1.0435024759807165e-01  -1.3607546151380099e-16  0.0000000000000000e+00  4.4468004049183062e-03  1.7127455517515416e-02  3.7068145729576861e-02  6.2710348119944567e-02  9.2001443367732250e-02  1.2251483275889397e-01  1.5159337259438718e-01  1.7650869199545280e-01  1.9462807852767411e-01  2.0358013856435622e-01  2.0141039127106011e-01  1.8671834205307117e-01  1.5876838829857892e-01  1.1756810257902654e-01  6.3908963097328991e-02  -6.3361098414508644e-04  -7.3742092629217743e-02  -1.5243966279560164e-01  -2.3321107118891699e-01  -3.1215665579685314e-01  -3.8517288476951633e-01  -4.4815131768066246e-01  -4.9718677454884397e-01  -5.2878480897594426e-01  -5.4005834693616239e-01  -5.2890359521063435e-01  -4.9414604103823440e-01  -4.3564853021253414e-01  -3.5437496776744248e-01  -2.5240503525509178e-01  -1.3289730177739362e-01  -1.7319121124709863e-16  0.0000000000000000e+00  5.2015632328445017e-03  2.0087060436332620e-02  4.3513237878005283e-02  7.3649092681800393e-02  1.0808232327863139e-01  1.4396049539617140e-01  1.7815964572568843e-01  2.0747158484023284e-01  2.2880012325603669e-01  2.3935588188840776e-01  2.3683929045704227e-01  2.1960183121608204e-01  1.8677653319615675e-01  1.3837012317248354e-01  7.5311031545721344e-02  -5.5044698936155417e-04  -8.6491223041730597e-02  -1.7901267641439528e-01  -2.7398266475830468e-01  -3.6681653590357738e-01  -4.5268934340977490e-01  -5.2676973865529220e-01  -5.8446470657351890e-01  -6.2166349463304438e-01  -6.3496880285301782e-01  -6.2190357908137084e-01  -5.8108259445416210e-01  -5.1233932642873548e-01  -4.1680048850787521e-01  -2.9690272295571402e-01  -1.5634839657373342e-01  -2.0365131985892053e-16  0.0000000000000000e+00  5.7509739765656464e-03  2.2264258298495338e-02  4.8271519452996715e-02  8.1740009042472334e-02  1.1999074529908721e-01  1.5985528518719738e-01  1.9786300468738241e-01  2.3044918095631059e-01  2.5417301589865049e-01  2.6593411422041596e-01  2.6317586362556383e-01  2.4406466777130936e-01  2.0763503452139426e-01  1.5389207770980456e-01  8.3864980865357666e-02  -3.9269400831835926e-04  -9.5857397466551572e-02  -1.9864353825690909e-01  -3.0416115615769668e-01  -4.0731694762723614e-01  -5.0274998037277085e-01  -5.8509151310544827e-01  -6.4923688293248738e-01  -6.9061651118061151e-01  -7.0545276097761089e-01  -6.9098968144651518e-01  -6.4568358985236396e-01  -5.6934394025572133e-01  -4.6321594191291687e-01  -3.2999883359213128e-01  -1.7379648638828643e-01  -2.2628522245754005e-16  0.0000000000000000e+00  6.0754643424865192e-03  2.3578375443652794e-02  5.1164390600938130e-02  8.6677422887924016e-02  1.2727499486535715e-01  1.6959457788898438e-01  2.0995234142985661e-01  2.4456401182076756e-01  2.6977631334302393e-01  2.8229679812601782e-01  2.7940980049521252e-01  2.5916678392618697e-01  2.2054046415835357e-01  1.6353374236978177e-01  8.9236594169024422e-02  -1.7346204511535138e-04  -1.0148896375049693e-01  -2.1058696057925175e-01  -3.2259627107576955e-01  -4.3211077809667786e-01  -5.3343956930670511e-01  -6.2088268940769720e-01  -6.8901972520227850e-01  -7.3299747405394566e-01  -7.4880260609418781e-01  -7.3350554726323769e-01  -6.8546278038840747e-01  -6.0446635079544542e-01  -4.9183150814460730e-01  -3.5041602921944243e-01  -1.8456774210518676e-01  -2.4022311085933110e-16  0.0000000000000000e+00  6.1637600105219070e-03  2.3981227084643012e-02  5.2083969696838005e-02  8.8275646029187499e-02  1.2965969889574036e-01  1.7280885861992057e-01  2.1396771527422517e-01  2.4927786172945854e-01  2.7501385708172976e-01  2.8781757904792171e-01  2.8491846017675948e-01  2.6432764414795368e-01  2.2499523429524984e-01  1.6692148789084579e-01  9.1214961956026921e-02  9.3141954726871638e-05  -1.0317613212524071e-01  -2.1439121607566114e-01  -3.2858705804940225e-01  -4.4025255283898690e-01  -5.4358548471978596e-01  -6.3277360834677798e-01  -7.0228883938233100e-01  -7.4718053470396895e-01  -7.6335349273601805e-01  -7.4781662521045522e-01  -6.9888923960106009e-01  -6.1635349294785102e-01  -5.0154377030243924e-01  -3.5736641657915375e-01  -1.8824630130985318e-01  -2.4492935982947064e-16  0.0000000000000000e+00  6.0133892295230404e-03  2.3459115563655847e-02  5.0997448904990562e-02  8.6476373674867837e-02  1.2705670677879807e-01  1.6937824116279768e-01  2.0975834967755633e-01  2.4441275657253955e-01  2.6968695463560993e-01  2.8228607651660420e-01  2.7949095478223618e-01  2.5934863464852209e-01  2.2082671583718630e-01  1.6392254774711196e-01  8.9720411894613453e-02  3.9230184019779980e-04  -1.0085935994338839e-01  -2.0991587310582552e-01  -3.2190923472289129e-01  -4.3143518902275801e-01  -5.3280316757623347e-01  -6.2031189307231704e-01  -6.8853787042599846e-01  -7.3262301413605346e-01  -7.4854731615511116e-01  -7.3337277140301638e-01  -6.8544574610269648e-01  -6.0454656504048732e-01  -4.9197724707572588e-01  -3.5058094746960033e-01  -1.8468966333901116e-01  -2.4022311085933110e-16  0.0000000000000000e+00  5.6308369027446743e-03  2.2033471681072447e-02  4.7948519378177144e-02  8.1351129805307704e-02  1.1956871159427200e-01  1.5943732445569969e-01  1.9748867724530089e-01  2.3015804086175462e-01  2.5400222543270312e-01  2.6591613883894216e-01  2.6333637213824651e-01  2.4442075431481322e-01  2.0819386508277749e-01  1.5465004510321642e-01  8.4807429125772882e-02  7.0885926803522438e-04  -9.4631893971010378e-02  -1.9733748542115687e-01  -3.0282412257890590e-01  -4.0600211546083548e-01  -5.0151120378664993e-01  -5.8398009030425435e-01  -6.4829814775748074e-01  -6.8988634666420423e-01  -7.0495412441878458e-01  -6.9072920916561853e-01  -6.4564832257739591e-01  -5.6949818399986996e-01  -4.6349826741898104e-01  -3.3031924091112713e-01  -1.7403384282173878e-01  -2.2628522245754005e-16  0.0000000000000000e+00  5.0313415054518036e-03  1.9760120810185067e-02  4.3055820467974994e-02  7.3098678132752615e-02  1.0748548558849792e-01  1.4337021389577631e-01  1.7763221528870810e-01  2.0706328522834747e-01  2.2856382262857883e-01  2.3933775516884603e-01  2.3707583022071113e-01  2.2011731710823512e-01  1.8758110614824122e-01  1.3945858381706100e-01  7.6662449494198759e-02  1.0277367238039827e-03  -8.4736385356006555e-02  -1.7714303397721648e-01  -2.7206884615306431e-01  -3.6493431577807550e-01  -4.5091546075049888e-01  -5.2517731140900159e-01  -5.8311839442163826e-01  -6.2061455582694980e-01  -6.3425017070947853e-01  -6.2152504858450142e-01  -5.8102616142797314e-01  -5.1255466855081200e-01  -4.1720053784249256e-01  -2.9735929276768425e-01  -1.5668795551651413e-01  -2.0365131985892061e-16  0.0000000000000000e+00  4.2383452106366081e-03  1.6727207009472399e-02  3.6508479736765215e-02  6.2037507160031306e-02  9.1272884968612217e-02  1.2179590999974518e-01  1.5095351873818844e-01  1.7601730803989643e-01  1.9435033993119497e-01  2.0357294440071924e-01  2.0171867526942194e-01  1.8737195054336547e-01  1.5977970563768951e-01  1.1893057135417080e-01  6.5596605870064884e-02  1.3343926135654899e-03  -7.1555717968065549e-02  -1.5011138616674866e-01  -2.3082818907322847e-01  -3.0981281034285418e-01  -3.8296291067554622e-01  -4.4616559860260824e-01  -4.9550529873175730e-01  -5.2747110589508805e-01  -5.3915345911384371e-01  -5.2842018922857825e-01  -4.9406268723520808e-01  -4.3590408411054526e-01  -3.5486288352762474e-01  -2.5296738364617183e-01  -1.3331838348277131e-01  -1.7319121124709868e-16  0.0000000000000000e+00  3.2826203606673644e-03  1.3051858831498548e-02  2.8558920792979069e-02  4.8593685179097422e-02  7.1555054640651802e-02  9.5544634656952773e-02  1.1847891286504528e-01  1.3821412594328109e-01  1.5267729872096508e-01  1.5999655409647290e-01  1.5862374329172718e-01  1.4744273883015604e-01  1.2585735620755700e-01  9.3853797745588372e-02  5.2033702418021924e-02  1.6152846196642175e-03  -5.5598411172197500e-02  -1.1728349565501958e-01  -1.8068920088542573e-01  -2.4275803247772071e-01  -3.0026692962541729e-01  -3.4998309161768759e-01  -3.8882724493521015e-01  -4.1403656508335129e-01  -4.2331926416250770e-01  -4.1499302471337440e-01  -3.8810000193826205e-01  -3.4249201220564901e-01  -2.7888074153121234e-01  -1.9884929427346196e-01  -1.0482309678494794e-01  -1.3607546151380099e-16  0.0000000000000000e+00  2.2011074068261482e-03  8.8757279703572268e-03  1.9513219678084510e-02  3.3284557359752283e-02  4.9090523002192972e-02  6.5626011465262521e-02  8.1457137378867159e-02  9.5107148436219008e-02  1.0514666306366921e-01  1.1028348094502356e-01  1.0944717741976075e-01  1.0186389088167117e-01  8.7117138426978019e-02  6.5191130879118167e-02  3.6493875717590211e-02  1.8583184233252872e-03  -3.7479164825592916e-02  -7.9922496384751227e-02  -1.2358030869328067e-01  -1.6634843906674146e-01  -2.0600695358386137e-01  -2.4032734174999162e-01  -2.6718491073633355e-01  -2.8467101831344155e-01  -2.9119963939480742e-01  -2.8560287357620190e-01  -2.6721036989278335e-01  -2.3590825816475852e-01  -1.9217401030317810e-01  -1.3708467593222309e-01  -7.2297101487507440e-02  -9.3730408106525984e-17  0.0000000000000000e+00  1.0355101450776013e-03  4.3595744883061826e-03  9.7193836751473684e-03  1.6698915543680051e-02  2.4743110151024858e-02  3.3190328027507897e-02  4.1311419479265907e-02  4.8353381687775226e-02  5.3585327199129167e-02  5.6344344793000066e-02  5.6078809242473014e-02  5.2386792152573462e-02  4.5047438292000308e-02  3.4043491597545709e-02  1.9573568075582838e-02  2.0532605891595292e-03  -1.7895299407361970e-02  -3.9465230670710630e-02  -6.1697280701286848e-02  -8.3521490932558409e-02  -1.0380635526555121e-01  -1.2141326428528754e-01  -1.3525370977197748e-01  -1.4434651954976474e-01  -1.4787231286332206e-01  -1.4522241737018873e-01  -1.3603967058855279e-01  -1.2024883537534171e-01  -9.8074779058686043e-02  -7.0047082020177898e-02  -3.6990332079392264e-02  -4.7783347680335653e-17  0.0000000000000000e+00  -1.6929691308080800e-04  -3.2289163441617146e-04  -4.4599463059792074e-04  -5.2559421532663380e-04  -5.5122907971441766e-04  -5.1562744821748337e-04  -4.1517859795047672e-04  -2.5021057473733103e-04  -2.5057370203517555e-05  2.5209093361387312e-04  5.6955090605864895e-04  9.1270676831692148e-04  1.2647451722316609e-03  1.6075305567606092e-03  1.9225806940872650e-03  2.1920967907848280e-03  2.3999994606053363e-03  2.5329212175620366e-03  2.5811079755790286e-03  2.5391863330223698e-03  2.4067599846105663e-03  2.1888073488442886e-03  1.8958628758413609e-03  1.5439762603804046e-03  1.1544563313658142e-03  7.5341917591156262e-04  3.7117254144703230e-04  4.1480118721811369e-05  -1.9924054034109424e-04  -3.1272434616948637e-04  -2.5960090283131060e-04  -2.9995195653237152e-32  -0.0000000000000000e+00  -1.3669872518549992e-03  -4.9916748314799151e-03  -1.0592193546990163e-02  -1.7726956123780932e-02  -2.5820350743607022e-02  -3.4196455576363055e-02  -4.2119034748632253e-02  -4.8835741087967177e-02  -5.3624216307135195e-02  -5.5837656902962815e-02  -5.4947410428969660e-02  -5.0580283129005296e-02  -4.2548471511058408e-02  -3.0870367353296714e-02  -1.5780912819630146e-02  2.2693195659963398e-03  2.2626601246553430e-02  4.4457786684159638e-02  6.6784462870707148e-02  8.8526121189650600e-02  1.0855048628801800e-01  1.2572873937779586e-01  1.3899307620061230e-01  1.4739385845313369e-01  1.5015356238661284e-01  1.4671480438534129e-01  1.3677992974262385e-01  1.2033998036116396e-01  9.7691297094743404e-02  6.9438544965241308e-02  3.6483552070510648e-02  4.7783347680335604e-17  -0.0000000000000000e+00  -2.5115607593821036e-03  -9.4674074028926278e-03  -2.0329372244338562e-02  -3.4244219033562187e-02  -5.0093273341783012e-02  -6.6557919439561131e-02  -8.2197585509670268e-02  -9.5536173631133939e-02  -1.0515242131620985e-01  -1.0976943103425103e-01  -1.0833858656610577e-01  -1.0011329272356957e-01  -8.4708419490285347e-02  -6.2141983828369732e-02  -3.2856433198190073e-02  2.2821333516964233e-03  4.2007402564064704e-02  8.4698423832653427e-02  1.2844569709923165e-01  1.7113509192951271e-01  2.1054597519306059e-01  2.4445913697408903e-01  2.7076951102192859e-01  2.8759831857628487e-01  2.9339914385474247e-01  2.8705258622285618e-01  2.6794452652572276e-01  2.3602368004194613e-01  1.9183496148446014e-01  1.3652622361822309e-01  7.1827106651014508e-02  9.3730408106525935e-17  -0.0000000000000000e+00  -3.5591133800869064e-03  -1.3578246189567074e-02  -2.9283557365751587e-02  -4.9442902933709176e-02  -7.2437499481511722e-02  -9.6356689214069952e-02  -1.1911091946154641e-01  -1.3855707946191981e-01  -1.5262965065666453e-01  -1.5947075816604209e-01  -1.5755218023390496e-01  -1.4578268320218077e-01  -1.2359468999395516e-01  -9.1005232527452212e-02  -4.8647341039549867e-02  2.2305685299275689e-03  5.9798198745702219e-02  1.2170903778099312e-01  1.8519584906192579e-01  2.4719211455816792e-01  3.0447419092768929e-01  3.5381778966076299e-01  3.9216152586920267e-01  4.1676974100796560e-01  4.2538662369201091e-01  4.1637384495655133e-01  3.8882448801661740e-01  3.4264696874878575e-01  2.7861387645868058e-01  1.9837216441425046e-01  1.0441282284896318e-01  1.3607546151380094e-16  -0.0000000000000000e+00  -4.4695301140866197e-03  -1.7166487657389394e-02  -3.7111030661705756e-02  -6.2739401570580486e-02  -9.1994873829411961e-02  -1.2244814658012407e-01  -1.5144097901204770e-01  -1.7624561849529208e-01  -1.9423169959734640e-01  -2.0303181849394425e-01  -2.0069694436800217e-01  -1.8583322139020431e-01  -1.5771252660714524e-01  -1.1635034562285580e-01  -6.2546056091939375e-02  2.1175004897697174e-03  7.5316307473268493e-02  1.5406841145687489e-01  2.3485514775092706e-01  3.1377544335099389e-01  3.8672653953385072e-01  4.4960301205981124e-01  4.9850486063996585e-01  5.2994474897725696e-01  5.4104424203602064e-01  5.2970912774781242e-01  4.9477462381241244e-01  4.3611243278412398e-01  3.5469317514151855e-01  2.5259963628592386e-01  1.3298842859563800e-01  1.7319121124709863e-16  -0.0000000000000000e+00  -5.2080366379728543e-03  -2.0094647824359168e-02  -4.3511565671502793e-02  -7.3623444589334258e-02  -1.0801460069191460e-01  -1.4383041327187174e-01  -1.7794609692182450e-01  -2.0715409572028443e-01  -2.2836031719057065e-01  -2.3877886534614215e-01  -2.3611487894349500e-01  -2.1872553926557828e-01  -1.8575026370583600e-01  -1.3720250617112878e-01  -7.4017380336034819e-02  1.9485741695212072e-03  8.7966846038779897e-02  1.8053456879719076e-01  2.7551682807193423e-01  3.6832789769537522e-01  4.5414358519033338e-01  5.2813514328108724e-01  5.8571390054035566e-01  6.2277494952789769e-01  6.3592795186163464e-01  6.2270339945257303e-01  5.8172350739399625e-01  5.1282827857318580e-01  4.1714912009459520e-01  2.9712463135773681e-01  1.5645572756421874e-01  2.0365131985892056e-16  -0.0000000000000000e+00  -5.7465504993478803e-03  -2.2250774513150079e-02  -4.8240006400118746e-02  -8.1677758013477667e-02  -1.1988215470622389e-01  -1.5968291426170997e-01  -1.9760877429732793e-01  -2.3009565284660599e-01  -2.5370467623093457e-01  -2.6533858570074398e-01  -2.6244497296713748e-01  -2.4319530163433087e-01  -2.0662972720394496e-01  -1.5275928736124067e-01  -8.2619027214516125e-02  1.7320390160031817e-03  9.7265655047150582e-02  2.0009257281740148e-01  3.0562047867565928e-01  4.0875520214685207e-01  5.0413652631277739e-01  5.8639800148529286e-01  6.5043871318832691e-01  6.9169404778358734e-01  7.0639218664658354e-01  6.9178336844546418e-01  6.4632988632464894e-01  5.6984630173448469e-01  4.6358140033983031e-01  3.3023590359469007e-01  1.7391277513369630e-01  2.2628522245754000e-16  -0.0000000000000000e+00  -6.0647808137971205e-03  -2.3552789444380596e-02  -5.1115745409960285e-02  -8.6594170510210469e-02  -1.2714297703614205e-01  -1.6939799729565747e-01  -2.0967486770801608e-01  -2.4418995856031114e-01  -2.6929181736661317e-01  -2.8169093091544484e-01  -2.7867554403451700e-01  -2.5830180930400465e-01  -2.1954766086645641e-01  -1.6242145894447652e-01  -8.8018566133167789e-02  1.4785036674233015e-03  1.0285799150693713e-01  2.1199362634039318e-01  3.2401210875491487e-01  4.3350656592433351e-01  5.3478676838834671e-01  6.2215486210506321e-01  6.9019382727727607e-01  7.3405490964453990e-01  7.4972993616321748e-01  7.3429475274600486e-01  6.8611100485970966e-01  6.0497508967020652e-01  4.9220527878639120e-01  3.5066065365619764e-01  1.8468849609342849e-01  2.4022311085933105e-16  -0.0000000000000000e+00  -6.1510353729640373e-03  -2.3951695591906831e-02  -5.2029740363667115e-02  -8.8185550568433496e-02  -1.2952005114144841e-01  -1.7260439872304914e-01  -2.1368268463114487e-01  -2.4889714649714489e-01  -2.7452413331410719e-01  -2.8720839116274993e-01  -2.8418316682525868e-01  -2.6346417154836310e-01  -2.2400658649309291e-01  -1.6581597586628530e-01  -9.0006128509658070e-02  1.2006237334988281e-03  1.0453227818760613e-01  2.1578397912459385e-01  3.2998863265892597e-01  4.4163441287051391e-0