<?xml version="1.0"?>
<VTKFile type="UnstructuredGrid"  version="0.1"  >
<UnstructuredGrid>
<Piece  NumberOfPoints="4225" NumberOfCells="8192">
<Points>
<DataArray  type="Float64"  NumberOfComponents="3"  format="ascii">0 0 0  0.015625 0 0  0.03125 0 0  0.046875 0 0  0.0625 0 0  0.078125 0 0  0.09375 0 0  0.109375 0 0  0.125 0 0  0.140625 0 0  0.15625 0 0  0.171875 0 0  0.1875 0 0  0.203125 0 0  0.21875 0 0  0.234375 0 0  0.25 0 0  0.265625 0 0  0.28125 0 0  0.296875 0 0  0.3125 0 0  0.328125 0 0  0.34375 0 0  0.359375 0 0  0.375 0 0  0.390625 0 0  0.40625 0 0  0.421875 0 0  0.4375 0 0  0.453125 0 0  0.46875 0 0  0.484375 0 0  0.5 0 0  0.515625 0 0  0.53125 0 0  0.546875 0 0  0.5625 0 0  0.578125 0 0  0.59375 0 0  0.609375 0 0  0.625 0 0  0.640625 0 0  0.65625 0 0  0.671875 0 0  0.6875 0 0  0.703125 0 0  0.71875 0 0  0.734375 0 0  0.75 0 0  0.765625 0 0  0.78125 0 0  0.796875 0 0  0.8125 0 0  0.828125 0 0  0.84375 0 0  0.859375 0 0  0.875 0 0  0.890625 0 0  0.90625 0 0  0.921875 0 0  0.9375 0 0  0.953125 0 0  0.96875 0 0  0.984375 0 0  1 0 0  0 0.015625 0  0.015625 0.015625 0  0.03125 0.015625 0  0.046875 0.015625 0  0.0625 0.015625 0  0.078125 0.015625 0  0.09375 0.015625 0  0.109375 0.015625 0  0.125 0.015625 0  0.140625 0.015625 0  0.15625 0.015625 0  0.171875 0.015625 0  0.1875 0.015625 0  0.203125 0.015625 0  0.21875 0.015625 0  0.234375 0.015625 0  0.25 0.015625 0  0.265625 0.015625 0  0.28125 0.015625 0  0.296875 0.015625 0  0.3125 0.015625 0  0.328125 0.015625 0  0.34375 0.015625 0  0.359375 0.015625 0  0.375 0.015625 0  0.390625 0.015625 0  0.40625 0.015625 0  0.421875 0.015625 0  0.4375 0.015625 0  0.453125 0.015625 0  0.46875 0.015625 0  0.484375 0.015625 0  0.5 0.015625 0  0.515625 0.015625 0  0.53125 0.015625 0  0.546875 0.015625 0  0.5625 0.015625 0  0.578125 0.015625 0  0.59375 0.015625 0  0.609375 0.015625 0  0.625 0.015625 0  0.640625 0.015625 0  0.65625 0.015625 0  0.671875 0.015625 0  0.6875 0.015625 0  0.703125 0.015625 0  0.71875 0.015625 0  0.734375 0.015625 0  0.75 0.015625 0  0.765625 0.015625 0  0.78125 0.015625 0  0.796875 0.015625 0  0.8125 0.015625 0  0.828125 0.015625 0  0.84375 0.015625 0  0.859375 0.015625 0  0.875 0.015625 0  0.890625 0.015625 0  0.90625 0.015625 0  0.921875 0.015625 0  0.9375 0.015625 0  0.953125 0.015625 0  0.96875 0.015625 0  0.984375 0.015625 0  1 0.015625 0  0 0.03125 0  0.015625 0.03125 0  0.03125 0.03125 0  0.046875 0.03125 0  0.0625 0.03125 0  0.078125 0.03125 0  0.09375 0.03125 0  0.109375 0.03125 0  0.125 0.03125 0  0.140625 0.03125 0  0.15625 0.03125 0  0.171875 0.03125 0  0.1875 0.03125 0  0.203125 0.03125 0  0.21875 0.03125 0  0.234375 0.03125 0  0.25 0.03125 0  0.265625 0.03125 0  0.28125 0.03125 0  0.296875 0.03125 0  0.3125 0.03125 0  0.328125 0.03125 0  0.34375 0.03125 0  0.359375 0.03125 0  0.375 0.03125 0  0.390625 0.03125 0  0.40625 0.03125 0  0.421875 0.03125 0  0.4375 0.03125 0  0.453125 0.03125 0  0.46875 0.03125 0  0.484375 0.03125 0  0.5 0.03125 0  0.515625 0.03125 0  0.53125 0.03125 0  0.546875 0.03125 0  0.5625 0.03125 0  0.578125 0.03125 0  0.59375 0.03125 0  0.609375 0.03125 0  0.625 0.03125 0  0.640625 0.03125 0  0.65625 0.03125 0  0.671875 0.03125 0  0.6875 0.03125 0  0.703125 0.03125 0  0.71875 0.03125 0  0.734375 0.03125 0  0.75 0.03125 0  0.765625 0.03125 0  0.78125 0.03125 0  0.796875 0.03125 0  0.8125 0.03125 0  0.828125 0.03125 0  0.84375 0.03125 0  0.859375 0.03125 0  0.875 0.03125 0  0.890625 0.03125 0  0.90625 0.03125 0  0.921875 0.03125 0  0.9375 0.03125 0  0.953125 0.03125 0  0.96875 0.03125 0  0.984375 0.03125 0  1 0.03125 0  0 0.046875 0  0.015625 0.046875 0  0.03125 0.046875 0  0.046875 0.046875 0  0.0625 0.046875 0  0.078125 0.046875 0  0.09375 0.046875 0  0.109375 0.046875 0  0.125 0.046875 0  0.140625 0.046875 0  0.15625 0.046875 0  0.171875 0.046875 0  0.1875 0.046875 0  0.203125 0.046875 0  0.21875 0.046875 0  0.234375 0.046875 0  0.25 0.046875 0  0.265625 0.046875 0  0.28125 0.046875 0  0.296875 0.046875 0  0.3125 0.046875 0  0.328125 0.046875 0  0.34375 0.046875 0  0.359375 0.046875 0  0.375 0.046875 0  0.390625 0.046875 0  0.40625 0.046875 0  0.421875 0.046875 0  0.4375 0.046875 0  0.453125 0.046875 0  0.46875 0.046875 0  0.484375 0.046875 0  0.5 0.046875 0  0.515625 0.046875 0  0.53125 0.046875 0  0.546875 0.046875 0  0.5625 0.046875 0  0.578125 0.046875 0  0.59375 0.046875 0  0.609375 0.046875 0  0.625 0.046875 0  0.640625 0.046875 0  0.65625 0.046875 0  0.671875 0.046875 0  0.6875 0.046875 0  0.703125 0.046875 0  0.71875 0.046875 0  0.734375 0.046875 0  0.75 0.046875 0  0.765625 0.046875 0  0.78125 0.046875 0  0.796875 0.046875 0  0.8125 0.046875 0  0.828125 0.046875 0  0.84375 0.046875 0  0.859375 0.046875 0  0.875 0.046875 0  0.890625 0.046875 0  0.90625 0.046875 0  0.921875 0.046875 0  0.9375 0.046875 0  0.953125 0.046875 0  0.96875 0.046875 0  0.984375 0.046875 0  1 0.046875 0  0 0.0625 0  0.015625 0.0625 0  0.03125 0.0625 0  0.046875 0.0625 0  0.0625 0.0625 0  0.078125 0.0625 0  0.09375 0.0625 0  0.109375 0.0625 0  0.125 0.0625 0  0.140625 0.0625 0  0.15625 0.0625 0  0.171875 0.0625 0  0.1875 0.0625 0  0.203125 0.0625 0  0.21875 0.0625 0  0.234375 0.0625 0  0.25 0.0625 0  0.265625 0.0625 0  0.28125 0.0625 0  0.296875 0.0625 0  0.3125 0.0625 0  0.328125 0.0625 0  0.34375 0.0625 0  0.359375 0.0625 0  0.375 0.0625 0  0.390625 0.0625 0  0.40625 0.0625 0  0.421875 0.0625 0  0.4375 0.0625 0  0.453125 0.0625 0  0.46875 0.0625 0  0.484375 0.0625 0  0.5 0.0625 0  0.515625 0.0625 0  0.53125 0.0625 0  0.546875 0.0625 0  0.5625 0.0625 0  0.578125 0.0625 0  0.59375 0.0625 0  0.609375 0.0625 0  0.625 0.0625 0  0.640625 0.0625 0  0.65625 0.0625 0  0.671875 0.0625 0  0.6875 0.0625 0  0.703125 0.0625 0  0.71875 0.0625 0  0.734375 0.0625 0  0.75 0.0625 0  0.765625 0.0625 0  0.78125 0.0625 0  0.796875 0.0625 0  0.8125 0.0625 0  0.828125 0.0625 0  0.84375 0.0625 0  0.859375 0.0625 0  0.875 0.0625 0  0.890625 0.0625 0  0.90625 0.0625 0  0.921875 0.0625 0  0.9375 0.0625 0  0.953125 0.0625 0  0.96875 0.0625 0  0.984375 0.0625 0  1 0.0625 0  0 0.078125 0  0.015625 0.078125 0  0.03125 0.078125 0  0.046875 0.078125 0  0.0625 0.078125 0  0.078125 0.078125 0  0.09375 0.078125 0  0.109375 0.078125 0  0.125 0.078125 0  0.140625 0.078125 0  0.15625 0.078125 0  0.171875 0.078125 0  0.1875 0.078125 0  0.203125 0.078125 0  0.21875 0.078125 0  0.234375 0.078125 0  0.25 0.078125 0  0.265625 0.078125 0  0.28125 0.078125 0  0.296875 0.078125 0  0.3125 0.078125 0  0.328125 0.078125 0  0.34375 0.078125 0  0.359375 0.078125 0  0.375 0.078125 0  0.390625 0.078125 0  0.40625 0.078125 0  0.421875 0.078125 0  0.4375 0.078125 0  0.453125 0.078125 0  0.46875 0.078125 0  0.484375 0.078125 0  0.5 0.078125 0  0.515625 0.078125 0  0.53125 0.078125 0  0.546875 0.078125 0  0.5625 0.078125 0  0.578125 0.078125 0  0.59375 0.078125 0  0.609375 0.078125 0  0.625 0.078125 0  0.640625 0.078125 0  0.65625 0.078125 0  0.671875 0.078125 0  0.6875 0.078125 0  0.703125 0.078125 0  0.71875 0.078125 0  0.734375 0.078125 0  0.75 0.078125 0  0.765625 0.078125 0  0.78125 0.078125 0  0.796875 0.078125 0  0.8125 0.078125 0  0.828125 0.078125 0  0.84375 0.078125 0  0.859375 0.078125 0  0.875 0.078125 0  0.890625 0.078125 0  0.90625 0.078125 0  0.921875 0.078125 0  0.9375 0.078125 0  0.953125 0.078125 0  0.96875 0.078125 0  0.984375 0.078125 0  1 0.078125 0  0 0.09375 0  0.015625 0.09375 0  0.03125 0.09375 0  0.046875 0.09375 0  0.0625 0.09375 0  0.078125 0.09375 0  0.09375 0.09375 0  0.109375 0.09375 0  0.125 0.09375 0  0.140625 0.09375 0  0.15625 0.09375 0  0.171875 0.09375 0  0.1875 0.09375 0  0.203125 0.09375 0  0.21875 0.09375 0  0.234375 0.09375 0  0.25 0.09375 0  0.265625 0.09375 0  0.28125 0.09375 0  0.296875 0.09375 0  0.3125 0.09375 0  0.328125 0.09375 0  0.34375 0.09375 0  0.359375 0.09375 0  0.375 0.09375 0  0.390625 0.09375 0  0.40625 0.09375 0  0.421875 0.09375 0  0.4375 0.09375 0  0.453125 0.09375 0  0.46875 0.09375 0  0.484375 0.09375 0  0.5 0.09375 0  0.515625 0.09375 0  0.53125 0.09375 0  0.546875 0.09375 0  0.5625 0.09375 0  0.578125 0.09375 0  0.59375 0.09375 0  0.609375 0.09375 0  0.625 0.09375 0  0.640625 0.09375 0  0.65625 0.09375 0  0.671875 0.09375 0  0.6875 0.09375 0  0.703125 0.09375 0  0.71875 0.09375 0  0.734375 0.09375 0  0.75 0.09375 0  0.765625 0.09375 0  0.78125 0.09375 0  0.796875 0.09375 0  0.8125 0.09375 0  0.828125 0.09375 0  0.84375 0.09375 0  0.859375 0.09375 0  0.875 0.09375 0  0.890625 0.09375 0  0.90625 0.09375 0  0.921875 0.09375 0  0.9375 0.09375 0  0.953125 0.09375 0  0.96875 0.09375 0  0.984375 0.09375 0  1 0.09375 0  0 0.109375 0  0.015625 0.109375 0  0.03125 0.109375 0  0.046875 0.109375 0  0.0625 0.109375 0  0.078125 0.109375 0  0.09375 0.109375 0  0.109375 0.109375 0  0.125 0.109375 0  0.140625 0.109375 0  0.15625 0.109375 0  0.171875 0.109375 0  0.1875 0.109375 0  0.203125 0.109375 0  0.21875 0.109375 0  0.234375 0.109375 0  0.25 0.109375 0  0.265625 0.109375 0  0.28125 0.109375 0  0.296875 0.109375 0  0.3125 0.109375 0  0.328125 0.109375 0  0.34375 0.109375 0  0.359375 0.109375 0  0.375 0.109375 0  0.390625 0.109375 0  0.40625 0.109375 0  0.421875 0.109375 0  0.4375 0.109375 0  0.453125 0.109375 0  0.46875 0.109375 0  0.484375 0.109375 0  0.5 0.109375 0  0.515625 0.109375 0  0.53125 0.109375 0  0.546875 0.109375 0  0.5625 0.109375 0  0.578125 0.109375 0  0.59375 0.109375 0  0.609375 0.109375 0  0.625 0.109375 0  0.640625 0.109375 0  0.65625 0.109375 0  0.671875 0.109375 0  0.6875 0.109375 0  0.703125 0.109375 0  0.71875 0.109375 0  0.734375 0.109375 0  0.75 0.109375 0  0.765625 0.109375 0  0.78125 0.109375 0  0.796875 0.109375 0  0.8125 0.109375 0  0.828125 0.109375 0  0.84375 0.109375 0  0.859375 0.109375 0  0.875 0.109375 0  0.890625 0.109375 0  0.90625 0.109375 0  0.921875 0.109375 0  0.9375 0.109375 0  0.953125 0.109375 0  0.96875 0.109375 0  0.984375 0.109375 0  1 0.109375 0  0 0.125 0  0.015625 0.125 0  0.03125 0.125 0  0.046875 0.125 0  0.0625 0.125 0  0.078125 0.125 0  0.09375 0.125 0  0.109375 0.125 0  0.125 0.12
[...]
<PointData  Scalars="f_1156"> 
<DataArray  type="Float64"  Name="f_1156"  format="ascii">0.0000000000000000e+00  0.0000000000000000e+00  0.0000000000000000e+00  0.0000000000000000e+00  0.0000000000000000e+00  0.0000000000000000e+00  0.0000000000000000e+00  0.0000000000000000e+00  0.0000000000000000e+00  0.0000000000000000e+00  0.0000000000000000e+00  0.0000000000000000e+00  0.0000000000000000e+00  0.0000000000000000e+00  0.0000000000000000e+00  0.0000000000000000e+00  0.0000000000000000e+00  0.0000000000000000e+00  0.0000000000000000e+00  0.0000000000000000e+00  0.0000000000000000e+00  0.0000000000000000e+00  0.0000000000000000e+00  0.0000000000000000e+00  0.0000000000000000e+00  0.0000000000000000e+00  0.0000000000000000e+00  0.0000000000000000e+00  0.0000000000000000e+00  0.0000000000000000e+00  0.0000000000000000e+00  0.0000000000000000e+00  0.0000000000000000e+00  0.0000000000000000e+00  0.0000000000000000e+00  0.0000000000000000e+00  0.0000000000000000e+00  0.0000000000000000e+00  0.0000000000000000e+00  0.0000000000000000e+00  0.0000000000000000e+00  0.0000000000000000e+00  0.0000000000000000e+00  0.0000000000000000e+00  0.0000000000000000e+00  0.0000000000000000e+00  0.0000000000000000e+00  0.0000000000000000e+00  0.0000000000000000e+00  0.0000000000000000e+00  0.0000000000000000e+00  0.0000000000000000e+00  0.0000000000000000e+00  0.0000000000000000e+00  0.0000000000000000e+00  0.0000000000000000e+00  0.0000000000000000e+00  0.0000000000000000e+00  0.0000000000000000e+00  0.0000000000000000e+00  0.0000000000000000e+00  0.0000000000000000e+00  0.0000000000000000e+00  0.0000000000000000e+00  0.0000000000000000e+00  0.0000000000000000e+00  1.5455435863836764e-04  6.0592610670872217e-04  1.3454492103656341e-03  2.3588475378553556e-03  3.6264416146225107e-03  5.1234340181582618e-03  6.8202697438782076e-03  8.6830669036852427e-03  1.0674112205220245e-02  1.2752414813057309e-02  1.4874311423753254e-02  1.6994114704050746e-02  1.9064796653897476e-02  2.1038697970891671e-02  2.2868254116131768e-02  2.4506728518012794e-02  2.5908943204421019e-02  2.7031997125990460e-02  2.7835962525835218e-02  2.8284549922529781e-02  2.8345732601842036e-02  2.7992321955032744e-02  2.7202485552887339e-02  2.5960200498842189e-02  2.4255635353861951e-02  2.2085454763401347e-02  1.9453041830217160e-02  1.6368634259397486e-02  1.2849371339036249e-02  8.9192499014856975e-03  4.6089885232018677e-03  -4.4199647717278658e-05  -4.9969239112196443e-03  -1.0200020228664803e-02  -1.5599038870790942e-02  -2.1134810669490592e-02  -2.6744086019823161e-02  -3.2360239815395098e-02  -3.7914034609803665e-02  -4.3334433488997466e-02  -4.8549453425730707e-02  -5.3487049275600697e-02  -5.8076018073933151e-02  -6.2246912909435938e-02  -6.5932955391656778e-02  -6.9070935597333197e-02  -7.1602088380004231e-02  -7.3472935059469058e-02  -7.4636079772589597e-02  -7.5050950165570077e-02  -7.4684472637635710e-02  -7.3511673007164324e-02  -7.1516194264029428e-02  -6.8690723999627140e-02  -6.5037325183400635e-02  -6.0567665215176397e-02  -5.5303139708105721e-02  -4.9274889442966735e-02  -4.2523711869443884e-02  -3.5099873707766245e-02  -2.7062842341474547e-02  -1.8480982387458222e-02  -9.4313494514943457e-03  -2.4007275929680562e-17  0.0000000000000000e+00  3.0698767350924088e-04  1.2047619252119582e-03  2.6760843192754624e-03  4.6925499744245357e-03  7.2149989483666780e-03  1.0194084149455794e-02  1.3570988475150670e-02  1.7278281946829677e-02  2.1240907791775430e-02  2.5377284737848376e-02  2.9600511254948895e-02  3.3819656118348813e-02  3.7941118499622901e-02  4.1870039824797763e-02  4.5511748889950285e-02  4.8773221199841121e-02  5.1564533203919523e-02  5.3800292049130956e-02  5.5401021652684936e-02  5.6294486319048424e-02  5.6416933779100807e-02  5.5714240409785225e-02  5.4142942489885361e-02  5.1671138648942648e-02  4.8279250158719318e-02  4.3960627382154019e-02  3.8721992514352155e-02  3.2583710704472961e-02  2.5579883712198281e-02  1.7758262404749856e-02  9.1799766160043390e-03  -8.0916860252418774e-05  -9.9380651083621121e-03  -2.0293623481088971e-02  -3.1039226061547690e-02  -4.2057112583706507e-02  -5.3221400161875224e-02  -6.4399486262906827e-02  -7.5453567581584641e-02  -8.6242257872726241e-02  -9.6622286371434954e-02  -1.0645025721653398e-01  -1.1558444929520377e-01  -1.2388663516464010e-01  -1.3122389718970406e-01  -1.3747041877328278e-01  -1.4250922855346349e-01  -1.4623387570391547e-01  -1.4855001499985024e-01  -1.4937688110266517e-01  -1.4864863256754607e-01  -1.4631554738765265e-01  -1.4234505345459608e-01  -1.3672257913990143e-01  -1.2945221130350693e-01  -1.2055715045308789e-01  -1.1007995561053872e-01  -9.8082574901829506e-02  -8.4646162435152647e-02  -6.9870688646079288e-02  -5.3874361936565467e-02  -3.6792897429717399e-02  -1.8778695505075733e-02  -4.7783348668446331e-17  0.0000000000000000e+00  4.5591158748627640e-04  1.7908985089592744e-03  3.9793249819260476e-03  6.9789397215120732e-03  1.0731487872038500e-02  1.5163555850471952e-02  2.0187638241404127e-02  2.5703413011176846e-02  3.1599208602571018e-02  3.7753643963700373e-02  4.4037420285666005e-02  5.0315241201541447e-02  5.6447836458693404e-02  6.2294062639077601e-02  6.7713053386476554e-02  7.2566390819085030e-02  7.6720269371934852e-02  8.0047623231811887e-02  8.2430188800637058e-02  8.3760474249008107e-02  8.3943609194699703e-02  8.2899048850169382e-02  8.0562108615668981e-02  7.6885307030957500e-02  7.1839497218856810e-02  6.5414769431578867e-02  5.7621110019043520e-02  4.8488805045075370e-02  3.8068579850238940e-02  2.6431469062516626e-02  1.3668414853138721e-02  -1.1040541577666350e-04  -1.4776517639238495e-02  -3.0184347660747731e-02  -4.6172665078139080e-02  -6.2566259862778056e-02  -7.9177834460260291e-02  -9.5810091188324120e-02  -1.1225799210967660e-01  -1.2831116616521437e-01  -1.4375643623771325e-01  -1.5838043700488311e-01  -1.7197229295733429e-01  -1.8432632482188913e-01  -1.9524475186106138e-01  -2.0454035712810884e-01  -2.1203908275201588e-01  -2.1758252271463785e-01  -2.2103028136198732e-01  -2.2226216706334259e-01  -2.2118019198787409e-01  -2.1771035090368898e-01  -2.1180415421038176e-01  -2.0343989308950414e-01  -1.9262361770194750e-01  -1.7938981279797087e-01  -1.6380175898534646e-01  -1.4595157232625983e-01  -1.2595992006831527e-01  -1.0397541634292795e-01  -8.0173708456985626e-02  -5.4756270142517070e-02  -2.7948914607646029e-02  -7.1099241638499513e-17  0.0000000000000000e+00  5.9996237615321491e-04  2.3588310074638672e-03  5.2428276811090548e-03  9.1962694193972027e-03  1.4142374957738067e-02  1.9984378280275088e-02  2.6606934898618564e-02  3.3877802772998206e-02  4.1649776207336231e-02  4.9762847743331305e-02  5.8046570074210969e-02  6.6322587332729777e-02  7.4407302813129517e-02  8.2114648291851153e-02  8.9258918640231222e-02  9.5657634393556026e-02  1.0113439436816145e-01  1.0552168031022638e-01  1.0866357591969564e-01  1.1041836341758503e-01  1.1066096210723375e-01  1.0928517510588101e-01  1.0620571257465489e-01  1.0135996232789669e-01  9.4709481628990899e-02  8.6241187246380330e-02  7.5968224413371047e-02  6.3930499167054719e-02  5.0194862592548156e-02  3.4854939720713032e-02  1.8030600171828330e-02  -1.3292794549587541e-04  -1.9466294934902116e-02  -3.9777606863512074e-02  -6.0854328695427611e-02  -8.2465494357243568e-02  -1.0436420088926482e-01  -1.2629036007602967e-01  -1.4797367747122142e-01  -1.6913682557818563e-01  -1.8949877515825841e-01  -2.0877824625070285e-01  -2.2669723853145163e-01  -2.4298459914139775e-01  -2.5737958509836312e-01  -2.6963537688970213e-01  -2.7952249983374844e-01  -2.8683211030590550e-01  -2.9137910494900665e-01  -2.9300501252426264e-01  -2.9158063009870433e-01  -2.8700836779699318e-01  -2.7922426935229772e-01  -2.6819967915791820e-01  -2.5394253043208675e-01  -2.3649823344938478e-01  -2.1595014755102931e-01  -1.9241962579862681e-01  -1.6606562659846724e-01  -1.3708389211582447e-01  -1.0570569797292506e-01  -7.2196180332756418e-02  -3.6852239954004551e-02  -9.3730410044774928e-17  0.0000000000000000e+00  7.3781510456062216e-04  2.9032137144079199e-03  6.4546076190067402e-03  1.1323425337061866e-02  1.7415105278073918e-02  2.4610467153849649e-02  3.2767444010334455e-02  4.1723152586154943e-02  5.1296275309099491e-02  6.1289723168702279e-02  7.1493545001911268e-02  8.1688045444267762e-02  9.1647070972068936e-02  1.0114142112617365e-01  1.0994234019534224e-01  1.1782504336896595e-01  1.2457223066342020e-01  1.2997754179276949e-01  1.3384890559720022e-01  1.3601173865838645e-01  1.3631194931012297e-01  1.3461870537799786e-01  1.3082692663233006e-01  1.2485946608223919e-01  1.1666894784406436e-01  1.0623923333983167e-01  9.3586491979213884e-02  7.8759857198270500e-02  6.1841653717892506e-02  4.2947187085215568e-02  2.2224091913279044e-02  -1.4875932586219385e-04  -2.3962779634621467e-02  -4.8981610205304310e-02  -7.4943464452616043e-02  -1.0156385014578616e-01  -1.2853864150101801e-01  -1.5554746846274667e-01  -1.8225738611638601e-01  -2.0832678329057897e-01  -2.3340948597002248e-01  -2.5715900819754428e-01  -2.7923290073319712e-01  -2.9929714589278372e-01  -3.1703054573532585e-01  -3.3212905012930566e-01  -3.4430997121368651e-01  -3.5331603139131079e-01  -3.5891919324676275e-01  -3.6092422166455745e-01  -3.5917193092181177e-01  -3.5354207262499149e-01  -3.4395582402766933e-01  -3.3037784047585284e-01  -3.1281784044283051e-01  -2.9133169679137932e-01  -2.6602201347405235e-01  -2.3703817274975134e-01  -2.0457584396669315e-01  -1.6887595066199013e-01  -1.3022309742682042e-01  -8.8943460415789932e-02  -4.5402143919761856e-02  -1.1545890336406499e-16  0.0000000000000000e+00  8.6819729874904820e-04  3.4189133611578736e-03  7.6031568248723829e-03  1.3340134237463769e-02  2.0518420251132086e-02  2.8997573620233329e-02  3.8610178227742466e-02  4.9164282869788932e-02  6.0446208347199527e-02  7.2223685612401306e-02  8.4249284357593934e-02  9.6264087558810815e-02  1.0800156415819376e-01  1.1919158931501203e-01  1.2956455951874352e-01  1.3885554836286049e-01  1.4680844794591183e-01  1.5318004070854002e-01  1.5774394703651490e-01  1.6029439515657559e-01  1.6064976171237486e-01  1.5865583391280189e-01  1.5418874726761844e-01  1.4715755663089661e-01  1.3750640252036184e-01  1.2521623942228474e-01  1.1030609797368500e-01  9.2833858476136566e-02  7.2896519075917335e-02  5.0629948074138835e-02  2.6208116137920616e-02  -1.5818940497748111e-04  -2.8223159565055063e-02  -5.7708252967121947e-02  -8.8304958116621354e-02  -1.1967800129661894e-01  -1.5146896693485384e-01  -1.8330029182025986e-01  -2.1477958949726450e-01  -2.4550425658671390e-01  -2.7506630873137156e-01  -3.0305739039494622e-01  -3.2907389990118102e-01  -3.5272216892324659e-01  -3.7362363415529354e-01  -3.9141993814115572e-01  -4.0577789621610943e-01  -4.1639426724480377e-01  -4.2300026731057266e-01  -4.2536576772056578e-01  -4.2330312162117972e-01  -4.1667056714287942e-01  -4.0537515928049983e-01  -3.8937518762231849e-01  -3.6868204251414849e-01  -3.4336149821770950e-01  -3.1353438800203548e-01  -2.7937665276271212e-01  -2.4111875149822290e-01  -1.9904442848322190e-01  -1.5348883783825659e-01  -1.0483603093552535e-01  -5.3515815617066122e-02  -1.3607546432770233e-16  0.0000000000000000e+00  9.8990201229466092e-04  3.9010601661388627e-03  8.6775573763694415e-03  1.5227161761803852e-02  2.3422662526939399e-02  3.3103714908967005e-02  4.4079170472998287e-02  5.6129862761257643e-02  6.9011812386646970e-02  8.2459810179092832e-02  9.6191332011260330e-02  1.0991073450959023e-01  1.2331367705085422e-01  1.3609171230193662e-01  1.4793698511957024e-01  1.5854697791972808e-01  1.6762923967553875e-01  1.7490603552194697e-01  1.8011885454012452e-01  1.8303271466096360e-01  1.8344020575036407e-01  1.8116521479976946e-01  1.7606628070995312e-01  1.6803953038731645e-01  1.5702115272182371e-01  1.4298937242951743e-01  1.2596589165972913e-01  1.0601677361840224e-01  8.3252749173763393e-02  5.7828934408653235e-02  2.9943954286324442e-02  -1.6152508293433001e-04  -3.2206845732123485e-02  -6.5873971542318208e-02  -1.0081064205893783e-01  -1.3663403518206382e-01  -1.7293490086889271e-01  -2.0928212175136834e-01  -2.4522765080384279e-01  -2.8031177096552168e-01  -3.1406861699621141e-01  -3.4603189588169003e-01  -3.7574073885767217e-01  -4.0274561563541084e-01  -4.2661423972091955e-01  -4.4693739285330941e-01  -4.6333459656222675e-01  -4.7545955966950770e-01  -4.8300533223400294e-01  -4.8570909895182884e-01  -4.8335654835496550e-01  -4.7578575827002406e-01  -4.6289054286469600e-01  -4.4462321217018103e-01  -4.2099670115911436e-01  -3.9208603219928950e-01  -3.5802908189196658e-01  -3.1902663080853688e-01  -2.7534168229336975e-01  -2.2729804409891424e-01  -1.7527817395466783e-01  -1.1972029715032652e-01  -6.1114811124971288e-02  -1.5538154418344847e-16  0.0000000000000000e+00  1.1018001726828181e-03  4.3450961696136232e-03  9.6675886755875681e-03  1.6966500463592289e-02  2.6100065029871129e-02  3.6889582656909586e-02  4.9122017473232769e-02  6.2553102082084894e-02  7.6910909737409064e-02  9.1899847934855422e-02  1.0720502173250773e-01  1.2249691018803679e-01  1.3743629505684787e-01  1.5167937739250675e-01  1.6488301496946159e-01  1.7671001154498842e-01  1.8683438791686544e-01  1.9494656453144885e-01  2.0075838605928714e-01  2.0400791987757605e-01  2.0446396276559065e-01  2.0193019330660555e-01  1.9624891146309487e-01  1.8730431150756244e-01  1.7502523989651911e-01  1.5938739570973154e-01  1.4041493787096335e-01  1.1818147044650039e-01  9.2810384801295845e-02  6.4474545192915608e-02  3.3395312411243327e-02  -1.5909176817374663e-04  -3.5875868351801385e-02  -7.3400554013783550e-02  -1.1234053601555546e-01  -1.5226913434580877e-01  -1.9273020888253975e-01  -2.3324324242941916e-01  -2.7330884404831257e-01  -3.1241461127941306e-01  -3.5004128468362228e-01  -3.8566912372355278e-01  -4.1878442937942606e-01  -4.4888613612262518e-01  -4.7549239398357646e-01  -4.9814706048116314e-01  -5.1642602214938038e-01  -5.2994326631122080e-01  -5.3835662560932829e-01  -5.4137312059496490e-01  -5.3875382937756600e-01  -5.3031821791121092e-01  -5.1594786989603481e-01  -4.9558956144210126e-01  -4.6925763250878916e-01  -4.3703561460764440e-01  -3.9907708223714872e-01  -3.5560570388224683e-01  -3.0691447702427443e-01  -2.5336414032890542e-01  -1.9538076491001441e-01  -1.3345253531596343e-01  -6.8125739892846718e-02  -1.7319121482851565e-16  0.0000000000000000e+00  1.2028520981467446e-03  4.7468204073042031e-03  1.0563827774767639e-02  1.8541545718617870e-02  2.8525021418762314e-02  4.0318925036274940e-02  5.3690388471203748e-02  6.8372399019859378e-02  8.4067704184106279e-02  1.0045317720469529e-01  1.1718458681956921e-01  1.3390170936045423e-01  1.5023371666314395e-01  1.6580476943634509e-01  1.8023974275883253e-01  1.9317000829349240e-01  2.0423919664698340e-01  2.1310886308270371e-01  2.1946398051831686e-01  2.2301818540243856e-01  2.2351870465222218e-01  2.2075089531735204e-01  2.1454233297899303e-01  2.0476639004707500e-01  1.9134525102756308e-01  1.7425231842807762e-01  1.5351397017881352e-01  1.2921063718502684e-01  1.0147717780828949e-01  7.0502534601240383e-02  3.6528667395771597e-02  -1.5123423425176407e-04  -3.9195247153518124e-02  -8.0215898610574557e-02  -1.2278400834404035e-01  -1.6643315079582399e-01  -2.1066469130410173e-01  -2.5495334255084862e-01  -2.9875318050848976e-01  -3.4150405275581625e-01  -3.8263830639456797e-01  -4.2158775796705827e-01  -4.5779082381625025e-01  -4.9069972629613512e-01  -5.1978768917555174e-01  -5.4455603451705470e-01  -5.6454109327352242e-01  -5.7932084284067642e-01  -5.8852118683097421e-01  -5.9182179537874968e-01  -5.8896142832249976e-01  -5.7974266859915491e-01  -5.6403599907507374e-01  -5.4178316276667937e-01  -5.1299975389233576e-01  -4.7777699535772050e-01  -4.3628266700566493e-01  -3.8876115814724793e-01  -3.3553262741573175e-01  -2.7699126274178315e-01  -2.1360264416715757e-01  -1.4590022229365029e-01  -7.4480935515797778e-02  -1.8933295939883585e-16  0.0000000000000000e+00  1.2921180825828994e-03  5.1024305047726723e-03  1.1357741810675207e-02  1.9937257849746350e-02  3.0674335400564329e-02  4.3358899051306882e-02  5.7740494267304959e-02  7.3531937348135276e-02  9.0413515222841884e-02  1.0803768084578197e-01  1.2603418342488926e-01  1.4401556691878531e-01  1.6158296524987367e-01  1.7833211855986425e-01  1.9385953163359107e-01  2.0776869337772205e-01  2.1967627499284953e-01  2.2921822423919705e-01  2.3605567397367627e-01  2.3988058492489214e-01  2.4042104545444110e-01  2.3744615480009523e-01  2.3077042096695641e-01  2.2025760997698374e-01  2.0582398954223516e-01  1.8744091732180942e-01  1.6513673167625700e-01  1.3899791115752960e-01  1.0916947777173257e-01  7.5854628224406723e-02  3.9313586796608929e-02  -1.3831690384617085e-04  -4.2133332432937182e-02  -8.6254712790613350e-02  -1.3204084665257687e-01  -1.7899005762664319e-01  -2.2656602092218478e-01  -2.7420373964774597e-01  -3.2131601538979604e-01  -3.6730034086809105e-01  -4.1154613639665694e-01  -4.5344224668243388e-01  -4.9238461023339480e-01  -5.2778401038310607e-01  -5.5907381471648177e-01  -5.8571760853626054e-01  -6.0721662796525766e-01  -6.2311689934627357e-01  -6.3301599377720041e-01  -6.3656930888783592e-01  -6.3349579429942382e-01  -6.2358304256580988e-01  -6.0669167372247168e-01  -5.8275894879866819e-01  -5.5180155569909339e-01  -5.1391751964334687e-01  -4.6928719976216465e-01  -4.1817334338084811e-01  -3.6092017986359071e-01  -2.9795154654692785e-01  -2.2976805018157623e-01  -1.5694327838872388e-01  -8.0119086920991844e-02  -2.0365132407022147e-16  0.0000000000000000e+00  1.3687679542122733e-03  5.4085603071227827e-03  1.2041771679926526e-02  2.1140308934769918e-02  3.2527446532819720e-02  4.5980389653335556e-02  6.1233512124108512e-02  7.7982227486300348e-02  9.5887443291852573e-02  1.1458054110935788e-01  1.3366881778677617e-01  1.5274131737181385e-01  1.7137497779834865e-01  1.8914101207604916e-01  2.0561144032479881e-01  2.2036568661991696e-01  2.3299715328973777e-01  2.4311968505365486e-01  2.5037383621294779e-01  2.5443285600327448e-01  2.5500831016797881e-01  2.5185526078504838e-01  2.4477693133412790e-01  2.3362878987022906e-01  2.1832198991053969e-01  1.9882611616606277e-01  1.7517119047288501e-01  1.4744890210784736e-01  1.1581303600551376e-01  8.0479082122689005e-02  4.1723019207741158e-02  -1.2072358975989445e-04  -4.4662113609796494e-02  -9.1459146263867100e-02  -1.4002222754366225e-01  -1.8981926405034352e-01  -2.4028140792741026e-01  -2.9080939540938783e-01  -3.4078040967725753e-01  -3.8955539143713802e-01  -4.3648671420308527e-01  -4.8092613575123760e-01  -5.2223293269281579e-01  -5.5978212164840624e-01  -5.9297266814745742e-01  -6.2123558315941074e-01  -6.4404180711334080e-01  -6.6090978239134357e-01  -6.7141261758445681e-01  -6.7518475026355007e-01  -6.7192801960998105e-01  -6.6141706592963834e-01  -6.4350398078093685e-01  -6.1812213911355418e-01  -5.8528915335736831e-01  -5.4510889872684498e-01  -4.9777256901362987e-01  -4.4355873272061058e-01  -3.8283237043506435e-01  -3.1604288574307587e-01  -2.4372109365909705e-01  -1.6647520240590830e-01  -8.4985816361477756e-02  -2.1600841516367288e-16  0.0000000000000000e+00  1.4320895227490200e-03  5.6623131951427895e-03  1.2609406169524282e-02  2.2139212909874986e-02  3.4066630372701641e-02  4.8158292638856508e-02  6.4135962484444156e-02  8.1680586236336797e-02  1.0043695964118000e-01  1.2001894449152502e-01  1.4001516849514276e-01  1.5999513443306917e-01  1.7951565910719280e-01  1.9812755799831200e-01  2.1538248799798840e-01  2.3083985808826946e-01  2.4407371645518405e-01  2.5467952225579865e-01  2.6228071112134976e-01  2.6653496546532035e-01  2.6714010375494007e-01  2.6383950706709780e-01  2.5642700643811100e-01  2.4475116067635497e-01  2.2871886136669525e-01  2.0829820967825138e-01  1.8352061820164992e-01  1.5448210029080800e-01  1.2134371916091385e-01  8.4331179185675842e-02  4.3733552324800015e-02  -9.8856725527502799e-05  -4.6757492355671441e-02  -9.5779351