<?xml version="1.0"?>
<VTKFile type="UnstructuredGrid"  version="0.1"  >
<UnstructuredGrid>
<Piece  NumberOfPoints="1089" NumberOfCells="2048">
<Points>
<DataArray  type="Float64"  NumberOfComponents="3"  format="ascii">0 0 0  0.03125 0 0  0.0625 0 0  0.09375 0 0  0.125 0 0  0.15625 0 0  0.1875 0 0  0.21875 0 0  0.25 0 0  0.28125 0 0  0.3125 0 0  0.34375 0 0  0.375 0 0  0.40625 0 0  0.4375 0 0  0.46875 0 0  0.5 0 0  0.53125 0 0  0.5625 0 0  0.59375 0 0  0.625 0 0  0.65625 0 0  0.6875 0 0  0.71875 0 0  0.75 0 0  0.78125 0 0  0.8125 0 0  0.84375 0 0  0.875 0 0  0.90625 0 0  0.9375 0 0  0.96875 0 0  1 0 0  0 0.03125 0  0.03125 0.03125 0  0.0625 0.03125 0  0.09375 0.03125 0  0.125 0.03125 0  0.15625 0.03125 0  0.1875 0.03125 0  0.21875 0.03125 0  0.25 0.03125 0  0.28125 0.03125 0  0.3125 0.03125 0  0.34375 0.03125 0  0.375 0.03125 0  0.40625 0.03125 0  0.4375 0.03125 0  0.46875 0.03125 0  0.5 0.03125 0  0.53125 0.03125 0  0.5625 0.03125 0  0.59375 0.03125 0  0.625 0.03125 0  0.65625 0.03125 0  0.6875 0.03125 0  0.71875 0.03125 0  0.75 0.03125 0  0.78125 0.03125 0  0.8125 0.03125 0  0.84375 0.03125 0  0.875 0.03125 0  0.90625 0.03125 0  0.9375 0.03125 0  0.96875 0.03125 0  1 0.03125 0  0 0.0625 0  0.03125 0.0625 0  0.0625 0.0625 0  0.09375 0.0625 0  0.125 0.0625 0  0.15625 0.0625 0  0.1875 0.0625 0  0.21875 0.0625 0  0.25 0.0625 0  0.28125 0.0625 0  0.3125 0.0625 0  0.34375 0.0625 0  0.375 0.0625 0  0.40625 0.0625 0  0.4375 0.0625 0  0.46875 0.0625 0  0.5 0.0625 0  0.53125 0.0625 0  0.5625 0.0625 0  0.59375 0.0625 0  0.625 0.0625 0  0.65625 0.0625 0  0.6875 0.0625 0  0.71875 0.0625 0  0.75 0.0625 0  0.78125 0.0625 0  0.8125 0.0625 0  0.84375 0.0625 0  0.875 0.0625 0  0.90625 0.0625 0  0.9375 0.0625 0  0.96875 0.0625 0  1 0.0625 0  0 0.09375 0  0.03125 0.09375 0  0.0625 0.09375 0  0.09375 0.09375 0  0.125 0.09375 0  0.15625 0.09375 0  0.1875 0.09375 0  0.21875 0.09375 0  0.25 0.09375 0  0.28125 0.09375 0  0.3125 0.09375 0  0.34375 0.09375 0  0.375 0.09375 0  0.40625 0.09375 0  0.4375 0.09375 0  0.46875 0.09375 0  0.5 0.09375 0  0.53125 0.09375 0  0.5625 0.09375 0  0.59375 0.09375 0  0.625 0.09375 0  0.65625 0.09375 0  0.6875 0.09375 0  0.71875 0.09375 0  0.75 0.09375 0  0.78125 0.09375 0  0.8125 0.09375 0  0.84375 0.09375 0  0.875 0.09375 0  0.90625 0.09375 0  0.9375 0.09375 0  0.96875 0.09375 0  1 0.09375 0  0 0.125 0  0.03125 0.125 0  0.0625 0.125 0  0.09375 0.125 0  0.125 0.125 0  0.15625 0.125 0  0.1875 0.125 0  0.21875 0.125 0  0.25 0.125 0  0.28125 0.125 0  0.3125 0.125 0  0.34375 0.125 0  0.375 0.125 0  0.40625 0.125 0  0.4375 0.125 0  0.46875 0.125 0  0.5 0.125 0  0.53125 0.125 0  0.5625 0.125 0  0.59375 0.125 0  0.625 0.125 0  0.65625 0.125 0  0.6875 0.125 0  0.71875 0.125 0  0.75 0.125 0  0.78125 0.125 0  0.8125 0.125 0  0.84375 0.125 0  0.875 0.125 0  0.90625 0.125 0  0.9375 0.125 0  0.96875 0.125 0  1 0.125 0  0 0.15625 0  0.03125 0.15625 0  0.0625 0.15625 0  0.09375 0.15625 0  0.125 0.15625 0  0.15625 0.15625 0  0.1875 0.15625 0  0.21875 0.15625 0  0.25 0.15625 0  0.28125 0.15625 0  0.3125 0.15625 0  0.34375 0.15625 0  0.375 0.15625 0  0.40625 0.15625 0  0.4375 0.15625 0  0.46875 0.15625 0  0.5 0.15625 0  0.53125 0.15625 0  0.5625 0.15625 0  0.59375 0.15625 0  0.625 0.15625 0  0.65625 0.15625 0  0.6875 0.15625 0  0.71875 0.15625 0  0.75 0.15625 0  0.78125 0.15625 0  0.8125 0.15625 0  0.84375 0.15625 0  0.875 0.15625 0  0.90625 0.15625 0  0.9375 0.15625 0  0.96875 0.15625 0  1 0.15625 0  0 0.1875 0  0.03125 0.1875 0  0.0625 0.1875 0  0.09375 0.1875 0  0.125 0.1875 0  0.15625 0.1875 0  0.1875 0.1875 0  0.21875 0.1875 0  0.25 0.1875 0  0.28125 0.1875 0  0.3125 0.1875 0  0.34375 0.1875 0  0.375 0.1875 0  0.40625 0.1875 0  0.4375 0.1875 0  0.46875 0.1875 0  0.5 0.1875 0  0.53125 0.1875 0  0.5625 0.1875 0  0.59375 0.1875 0  0.625 0.1875 0  0.65625 0.1875 0  0.6875 0.1875 0  0.71875 0.1875 0  0.75 0.1875 0  0.78125 0.1875 0  0.8125 0.1875 0  0.84375 0.1875 0  0.875 0.1875 0  0.90625 0.1875 0  0.9375 0.1875 0  0.96875 0.1875 0  1 0.1875 0  0 0.21875 0  0.03125 0.21875 0  0.0625 0.21875 0  0.09375 0.21875 0  0.125 0.21875 0  0.15625 0.21875 0  0.1875 0.21875 0  0.21875 0.21875 0  0.25 0.21875 0  0.28125 0.21875 0  0.3125 0.21875 0  0.34375 0.21875 0  0.375 0.21875 0  0.40625 0.21875 0  0.4375 0.21875 0  0.46875 0.21875 0  0.5 0.21875 0  0.53125 0.21875 0  0.5625 0.21875 0  0.59375 0.21875 0  0.625 0.21875 0  0.65625 0.21875 0  0.6875 0.21875 0  0.71875 0.21875 0  0.75 0.21875 0  0.78125 0.21875 0  0.8125 0.21875 0  0.84375 0.21875 0  0.875 0.21875 0  0.90625 0.21875 0  0.9375 0.21875 0  0.96875 0.21875 0  1 0.21875 0  0 0.25 0  0.03125 0.25 0  0.0625 0.25 0  0.09375 0.25 0  0.125 0.25 0  0.15625 0.25 0  0.1875 0.25 0  0.21875 0.25 0  0.25 0.25 0  0.28125 0.25 0  0.3125 0.25 0  0.34375 0.25 0  0.375 0.25 0  0.40625 0.25 0  0.4375 0.25 0  0.46875 0.25 0  0.5 0.25 0  0.53125 0.25 0  0.5625 0.25 0  0.59375 0.25 0  0.625 0.25 0  0.65625 0.25 0  0.6875 0.25 0  0.71875 0.25 0  0.75 0.25 0  0.78125 0.25 0  0.8125 0.25 0  0.84375 0.25 0  0.875 0.25 0  0.90625 0.25 0  0.9375 0.25 0  0.96875 0.25 0  1 0.25 0  0 0.28125 0  0.03125 0.28125 0  0.0625 0.28125 0  0.09375 0.28125 0  0.125 0.28125 0  0.15625 0.28125 0  0.1875 0.28125 0  0.21875 0.28125 0  0.25 0.28125 0  0.28125 0.28125 0  0.3125 0.28125 0  0.34375 0.28125 0  0.375 0.28125 0  0.40625 0.28125 0  0.4375 0.28125 0  0.46875 0.28125 0  0.5 0.28125 0  0.53125 0.28125 0  0.5625 0.28125 0  0.59375 0.28125 0  0.625 0.28125 0  0.65625 0.28125 0  0.6875 0.28125 0  0.71875 0.28125 0  0.75 0.28125 0  0.78125 0.28125 0  0.8125 0.28125 0  0.84375 0.28125 0  0.875 0.28125 0  0.90625 0.28125 0  0.9375 0.28125 0  0.96875 0.28125 0  1 0.28125 0  0 0.3125 0  0.03125 0.3125 0  0.0625 0.3125 0  0.09375 0.3125 0  0.125 0.3125 0  0.15625 0.3125 0  0.1875 0.3125 0  0.21875 0.3125 0  0.25 0.3125 0  0.28125 0.3125 0  0.3125 0.3125 0  0.34375 0.3125 0  0.375 0.3125 0  0.40625 0.3125 0  0.4375 0.3125 0  0.46875 0.3125 0  0.5 0.3125 0  0.53125 0.3125 0  0.5625 0.3125 0  0.59375 0.3125 0  0.625 0.3125 0  0.65625 0.3125 0  0.6875 0.3125 0  0.71875 0.3125 0  0.75 0.3125 0  0.78125 0.3125 0  0.8125 0.3125 0  0.84375 0.3125 0  0.875 0.3125 0  0.90625 0.3125 0  0.9375 0.3125 0  0.96875 0.3125 0  1 0.3125 0  0 0.34375 0  0.03125 0.34375 0  0.0625 0.34375 0  0.09375 0.34375 0  0.125 0.34375 0  0.15625 0.34375 0  0.1875 0.34375 0  0.21875 0.34375 0  0.25 0.34375 0  0.28125 0.34375 0  0.3125 0.34375 0  0.34375 0.34375 0  0.375 0.34375 0  0.40625 0.34375 0  0.4375 0.34375 0  0.46875 0.34375 0  0.5 0.34375 0  0.53125 0.34375 0  0.5625 0.34375 0  0.59375 0.34375 0  0.625 0.34375 0  0.65625 0.34375 0  0.6875 0.34375 0  0.71875 0.34375 0  0.75 0.34375 0  0.78125 0.34375 0  0.8125 0.34375 0  0.84375 0.34375 0  0.875 0.34375 0  0.90625 0.34375 0  0.9375 0.34375 0  0.96875 0.34375 0  1 0.34375 0  0 0.375 0  0.03125 0.375 0  0.0625 0.375 0  0.09375 0.375 0  0.125 0.375 0  0.15625 0.375 0  0.1875 0.375 0  0.21875 0.375 0  0.25 0.375 0  0.28125 0.375 0  0.3125 0.375 0  0.34375 0.375 0  0.375 0.375 0  0.40625 0.375 0  0.4375 0.375 0  0.46875 0.375 0  0.5 0.375 0  0.53125 0.375 0  0.5625 0.375 0  0.59375 0.375 0  0.625 0.375 0  0.65625 0.375 0  0.6875 0.375 0  0.71875 0.375 0  0.75 0.375 0  0.78125 0.375 0  0.8125 0.375 0  0.84375 0.375 0  0.875 0.375 0  0.90625 0.375 0  0.9375 0.375 0  0.96875 0.375 0  1 0.375 0  0 0.40625 0  0.03125 0.40625 0  0.0625 0.40625 0  0.09375 0.40625 0  0.125 0.40625 0  0.15625 0.40625 0  0.1875 0.40625 0  0.21875 0.40625 0  0.25 0.40625 0  0.28125 0.40625 0  0.3125 0.40625 0  0.34375 0.40625 0  0.375 0.40625 0  0.40625 0.40625 0  0.4375 0.40625 0  0.46875 0.40625 0  0.5 0.40625 0  0.53125 0.40625 0  0.5625 0.40625 0  0.59375 0.40625 0  0.625 0.40625 0  0.65625 0.40625 0  0.6875 0.40625 0  0.71875 0.40625 0  0.75 0.40625 0  0.78125 0.40625 0  0.8125 0.40625 0  0.84375 0.40625 0  0.875 0.40625 0  0.90625 0.40625 0  0.9375 0.40625 0  0.96875 0.40625 0  1 0.40625 0  0 0.4375 0  0.03125 0.4375 0  0.0625 0.4375 0  0.09375 0.4375 0  0.125 0.4375 0  0.15625 0.4375 0  0.1875 0.4375 0  0.21875 0.4375 0  0.25 0.4375 0  0.28125 0.4375 0  0.3125 0.4375 0  0.34375 0.4375 0  0.375 0.4375 0  0.40625 0.4375 0  0.4375 0.4375 0  0.46875 0.4375 0  0.5 0.4375 0  0.53125 0.4375 0  0.5625 0.4375 0  0.59375 0.4375 0  0.625 0.4375 0  0.65625 0.4375 0  0.6875 0.4375 0  0.71875 0.4375 0  0.75 0.4375 0  0.78125 0.4375 0  0.8125 0.4375 0  0.84375 0.4375 0  0.875 0.4375 0  0.90625 0.4375 0  0.9375 0.4375 0  0.96875 0.4375 0  1 0.4375 0  0 0.46875 0  0.03125 0.46875 0  0.0625 0.46875 0  0.09375 0.46875 0  0.125 0.46875 0  0.15625 0.46875 0  0.1875 0.46875 0  0.21875 0.46875 0  0.25 0.46875 0  0.28125 0.46875 0  0.3125 0.46875 0  0.34375 0.46875 0  0.375 0.46875 0  0.40625 0.46875 0  0.4375 0.46875 0  0.46875 0.46875 0  0.5 0.46875 0  0.53125 0.46875 0  0.5625 0.46875 0  0.59375 0.46875 0  0.625 0.46875 0  0.65625 0.46875 0  0.6875 0.46875 0  0.71875 0.46875 0  0.75 0.46875 0  0.78125 0.46875 0  0.8125 0.46875 0  0.84375 0.46875 0  0.875 0.46875 0  0.90625 0.46875 0  0.9375 0.46875 0  0.96875 0.46875 0  1 0.46875 0  0 0.5 0  0.03125 0.5 0  0.0625 0.5 0  0.09375 0.5 0  0.125 0.5 0  0.15625 0.5 0  0.1875 0.5 0  0.21875 0.5 0  0.25 0.5 0  0.28125 0.5 0  0.3125 0.5 0  0.34375 0.5 0  0.375 0.5 0  0.40625 0.5 0  0.4375 0.5 0  0.46875 0.5 0  0.5 0.5 0  0.53125 0.5 0  0.5625 0.5 0  0.59375 0.5 0  0.625 0.5 0  0.65625 0.5 0  0.6875 0.5 0  0.71875 0.5 0  0.75 0.5 0  0.78125 0.5 0  0.8125 0.5 0  0.84375 0.5 0  0.875 0.5 0  0.90625 0.5 0  0.9375 0.5 0  0.96875 0.5 0  1 0.5 0  0 0.53125 0  0.03125 0.53125 0  0.0625 0.53125 0  0.09375 0.53125 0  0.125 0.53125 0  0.15625 0.53125 0  0.1875 0.53125 0  0.21875 0.53125 0  0.25 0.53125 0  0.28125 0.53125 0  0.3125 0.53125 0  0.34375 0.53125 0  0.375 0.53125 0  0.40625 0.53125 0  0.4375 0.53125 0  0.46875 0.53125 0  0.5 0.53125 0  0.53125 0.53125 0  0.5625 0.53125 0  0.59375 0.53125 0  0.625 0.53125 0  0.65625 0.53125 0  0.6875 0.53125 0  0.71875 0.53125 0  0.75 0.53125 0  0.78125 0.531
[...]
<PointData  Scalars="f_913"> 
<DataArray  type="Float64"  Name="f_913"  format="ascii">0.0000000000000000e+00  0.0000000000000000e+00  0.0000000000000000e+00  0.0000000000000000e+00  0.0000000000000000e+00  0.0000000000000000e+00  0.0000000000000000e+00  0.0000000000000000e+00  0.0000000000000000e+00  0.0000000000000000e+00  0.0000000000000000e+00  0.0000000000000000e+00  0.0000000000000000e+00  0.0000000000000000e+00  0.0000000000000000e+00  0.0000000000000000e+00  0.0000000000000000e+00  0.0000000000000000e+00  0.0000000000000000e+00  0.0000000000000000e+00  0.0000000000000000e+00  0.0000000000000000e+00  0.0000000000000000e+00  0.0000000000000000e+00  0.0000000000000000e+00  0.0000000000000000e+00  0.0000000000000000e+00  0.0000000000000000e+00  0.0000000000000000e+00  0.0000000000000000e+00  0.0000000000000000e+00  0.0000000000000000e+00  0.0000000000000000e+00  0.0000000000000000e+00  6.1164862573559724e-05  1.0509370749765649e-04  1.3057090611159720e-04  1.3725377127685179e-04  1.2573521897140186e-04  9.7549702511010028e-05  5.5123293166675635e-05  1.6712700052975982e-06  -5.8951047668030776e-05  -1.2243635920521079e-04  -1.8424268188010906e-04  -2.3982889715175315e-04  -2.8489671673487260e-04  -3.1562697129296213e-04  -3.2889844530025261e-04  -3.2247839563943545e-04  -2.9517538115526182e-04  -2.4694706691230639e-04  -1.7895820692837017e-04  -9.3587005723622108e-05  5.6184541866732829e-06  1.1402804843634040e-04  2.2605123199584409e-04  3.3527583115061654e-04  4.3459848178506455e-04  5.1630627639601134e-04  5.7204034984156826e-04  5.9250843006705689e-04  5.6665529097532641e-04  4.7956207535503059e-04  3.0699921143041708e-04  0.0000000000000000e+00  0.0000000000000000e+00  1.0250651526637301e-04  1.7235997202713974e-04  2.0826948196368822e-04  2.1053372093424866e-04  1.8111013968650364e-04  1.2358172114672328e-04  4.3025268460880617e-05  -5.4210420655009806e-05  -1.6080409788338246e-04  -2.6882342107223400e-04  -3.7012940839538377e-04  -4.5680331768969962e-04  -5.2157430358702739e-04  -5.5822624302935553e-04  -5.6196323872391429e-04  -5.2971545274849423e-04  -4.6037006596277852e-04  -3.5491620640493160e-04  -2.1649754670691190e-04  -5.0371859360187621e-05  1.3621691189352747e-04  3.3424145078095324e-04  5.3314797919845613e-04  7.2113649975930061e-04  8.8541994046575923e-04  1.0123968166804165e-03  1.0876360862320800e-03  1.0955058230607828e-03  1.0181471951804244e-03  8.3324823534686177e-04  5.0968274191076635e-04  0.0000000000000000e+00  0.0000000000000000e+00  1.2662584848595554e-04  2.0734942866911833e-04  2.4171691294375131e-04  2.3142153219978673e-04  1.8033384371457517e-04  9.4394842556480563e-05  -1.8619298842378895e-05  -1.4944642466724334e-04  -2.8778203834603500e-04  -4.2279366449207711e-04  -5.4367905141095019e-04  -6.4023939006477293e-04  -7.0343814935579230e-04  -7.2591696054870314e-04  -7.0244220259318285e-04  -6.3025953818223910e-04  -5.0933846204088279e-04  -3.4249484740023206e-04  -1.3538632624274238e-04  1.0361703522351884e-04  3.6367602115133790e-04  6.3181979491860885e-04  8.9334814604596913e-04  1.1322576752381686e-03  1.3316373285022776e-03  1.4739602651577810e-03  1.5411728102582845e-03  1.5144435400442635e-03  1.3733875596861900e-03  1.0945505778227616e-03  6.4905382484914398e-04  0.0000000000000000e+00  0.0000000000000000e+00  1.3587260362232269e-04  2.1507738794676254e-04  2.3869455518145399e-04  2.1034811994458114e-04  1.3616192871987454e-04  2.4554801733689402e-05  -1.1411048772266841e-04  -2.6800330118406657e-04  -4.2439972075286603e-04  -5.7032469757758997e-04  -6.9322789476719548e-04  -7.8165794692883206e-04  -8.2590012380118205e-04  -8.1854432795407106e-04  -7.5495392211087642e-04  -6.3361098414512970e-04  -4.5632000718597021e-04  -2.2825962948380685e-04  4.2119582253835608e-05  3.4334420314680036e-04  6.6129727433572594e-04  9.7970149559184483e-04  1.2806698638027081e-03  1.5452769139663314e-03  1.7540926428014636e-03  1.8876092703934422e-03  1.9264787324327348e-03  1.8514697874659203e-03  1.6430602517131243e-03  1.2806366884384190e-03  7.4146006278219545e-04  0.0000000000000000e+00  0.0000000000000000e+00  1.3244840750922544e-04  2.0020761488209055e-04  2.0638479153872735e-04  1.5686753059049319e-04  6.0180125108791338e-05  -7.2833987219134144e-05  -2.2948233501215998e-04  -3.9581823540343897e-04  -5.5732710772121719e-04  -6.9966708390981069e-04  -8.0942448070753237e-04  -8.7484423754771723e-04  -8.8649684519834238e-04  -8.3784657767019266e-04  -7.2569083430792936e-04  -5.5044698936160513e-04  -3.1627101103084976e-04  -3.1001021340570922e-05  2.9407145598336903e-04  6.4458985247212164e-04  1.0036578350200998e-03  1.3524690838063735e-03  1.6709999116401031e-03  1.9387145938645212e-03  2.1352259351986591e-03  2.2408482466547142e-03  2.2369785748602711e-03  2.1062496297339361e-03  1.8324246613015127e-03  1.4000693660443653e-03  7.9416301166052028e-04  0.0000000000000000e+00  0.0000000000000000e+00  1.1847536713636628e-04  1.6717138641572649e-04  1.5152253180889669e-04  7.9823737698811459e-05  -3.7029187071574432e-05  -1.8597554904142832e-04  -3.5237420231179484e-04  -5.2070217151109488e-04  -6.7532838809919449e-04  -8.0132033998209229e-04  -8.8524024398556334e-04  -9.1588814301127308e-04  -8.8495213708628118e-04  -7.8753067475273442e-04  -6.2249827608168440e-04  -3.9269400831841585e-04  -1.0492110625376361e-04  2.3024395180734625e-04  5.9882434315933208e-04  9.8397889663148774e-04  1.3666724690961640e-03  1.7264429274272963e-03  2.0422191336506579e-03  2.2931382028534841e-03  2.4593064855827906e-03  2.5224484105196288e-03  2.4663923728938109e-03  2.2773568776934816e-03  1.9440283252319945e-03  1.4574700890633840e-03  8.1097050402165194e-04  0.0000000000000000e+00  0.0000000000000000e+00  9.6035711781992245e-05  1.2023309878621616e-04  8.0474340705134761e-05  -1.2567444710190334e-05  -1.4581089228613009e-04  -3.0431830218205502e-04  -4.7198243856536037e-04  -6.3230828004004480e-04  -7.6924591637578255e-04  -8.6802885925962858e-04  -9.1597217160277467e-04  -9.0318707171571644e-04  -8.2317296932274409e-04  -6.7325404428431046e-04  -4.5483529154363711e-04  -1.7346204511541145e-04  1.6132297148008234e-04  5.3632052454738455e-04  9.3519857237261972e-04  1.3391735664931570e-03  1.7278148753967493e-03  2.0799299599130183e-03  2.3744817939650442e-03  2.5914862484771595e-03  2.7128362930336491e-03  2.7230028984835952e-03  2.6095707028666038e-03  2.3635815329942078e-03  1.9796823709782863e-03  1.4561059535567744e-03  7.9454544665402693e-04  0.0000000000000000e+00  0.0000000000000000e+00  6.7187447517899276e-05  6.3512561824900782e-05  -7.3964874969939531e-07  -1.1270161913093379e-04  -2.5742802653230812e-04  -4.1855372594568063e-04  -5.7906481398148357e-04  -7.2213827054146140e-04  -8.3200303167879630e-04  -8.9477486185540744e-04  -8.9921905224049636e-04  -8.3739879700167608e-04  -7.0517286896354392e-04  -5.0251376888102439e-04  -2.3362648903335614e-04  9.3141954726810408e-05  4.6560144582748209e-04  8.6821462970179675e-04  1.2827678059864067e-03  1.6891854026052644e-03  2.0664483537593537e-03  2.3935702547315252e-03  2.6505809074908182e-03  2.8194652960310540e-03  2.8850075790057828e-03  2.8354949549651565e-03  2.6632457792127306e-03  2.3649405903781728e-03  1.9417533715752056e-03  1.3993012631184909e-03  7.4744814327151743e-04  0.0000000000000000e+00  0.0000000000000000e+00  3.3960598818513418e-05  9.7321878926928673e-07  -8.6467355242432486e-05  -2.1361665776636896e-04  -3.6409897884520648e-04  -5.2065502836876054e-04  -6.6597419086564247e-04  -7.8356352826805531e-04  -8.5860462378978264e-04  -8.7875046867325057e-04  -8.3481788457911987e-04  -7.2133634938059688e-04  -5.3692129049001669e-04  -2.8444866695412352e-04  2.8982434045393690e-05  3.9230184019773973e-04  7.9092677858862148e-04  1.2074079979736141e-03  1.6222349252508761e-03  2.0147626404130037e-03  2.3642166058683856e-03  2.6507262952931709e-03  2.8563365702450882e-03  2.9659461663693598e-03  2.9681262321102908e-03  2.8557787587049077e-03  2.6266049885775855e-03  2.2833672879523093e-03  1.8339434398597088e-03  1.2911877033988661e-03  6.7262421282962559e-04  0.0000000000000000e+00  0.0000000000000000e+00  -1.6617066846058223e-06  -6.3615231007164291e-05  -1.7147754301067436e-04  -3.0905549946581845e-04  -4.5906289188678284e-04  -6.0393628053911907e-04  -7.2670164439331275e-04  -8.1184226606706433e-04  -8.4611885404656251e-04  -8.1929572145589269e-04  -7.2473173130288560e-04  -5.5980159950741459e-04  -3.2612157570305333e-04  -2.9563281340877490e-05  3.1994998433353128e-04  7.0885926803516779e-04  1.1205823892874306e-03  1.5362967875595657e-03  1.9358579219501126e-03  2.2988110630321468e-03  2.6054490552170906e-03  2.8378657286212139e-03  2.9809543086573020e-03  3.0233027192607675e-03  2.9579430444091059e-03  2.7829206914162796e-03  2.5016596478618647e-03  2.1231131335448516e-03  1.6617028191678318e-03  1.1370627700675318e-03  5.7361407056930047e-04  0.0000000000000000e+00  0.0000000000000000e+00  -3.7773319883474370e-05  -1.2673201126546865e-04  -2.5103261849158259e-04  -3.9354701845731310e-04  -5.3665756502471740e-04  -6.6311548761427419e-04  -7.5691277199257945e-04  -8.0411784728889879e-04  -7.9362773517918650e-04  -7.1779380347164468e-04  -5.7288471703878519e-04  -3.5935834539471689e-04  -8.1923893113927670e-05  2.5061406690721211e-04  6.2572711416945814e-04  1.0277367238039317e-03  1.4385666746932202e-03  1.8386414158382824e-03  2.2078900612238495e-03  2.5268099779741648e-03  2.7775404942963489e-03  2.9448963300972020e-03  3.0173120635210715e-03  2.9876533999593224e-03  2.8538580787381695e-03  2.6193787435244698e-03  2.2934116010494554e-03  1.8909075076576354e-03  1.4323753266843320e-03  9.4349955407424524e-04  4.5460406887987137e-04  0.0000000000000000e+00  0.0000000000000000e+00  -7.2582590659376299e-05  -1.8517112009625719e-04  -3.2097143763019920e-04  -4.6249283996869367e-04  -5.9239647040017218e-04  -6.9436795741510682e-04  -7.5396434392144274e-04  -7.5938725674046248e-04  -7.0213831723203723e-04  -5.7751886121459872e-04  -3.8494389640539306e-04  -1.2804945663455469e-04  1.8541721530937472e-04  5.4392444719017496e-04  9.3268885062500195e-04  1.3343926135654465e-03  1.7300546539662232e-03  2.1000169993692086e-03  2.4250016979423805e-03  2.6871896571458165e-03  2.8712713683058944e-03  2.9654205736461270e-03  2.9621456808894275e-03  2.8589799948226524e-03  2.6589804651202531e-03  2.3710152524496486e-03  2.0098325354591107e-03  1.5959158894548464e-03  1.1551444915309239e-03  7.1828829735842703e-04  3.2037835740453269e-04  0.0000000000000000e+00  0.0000000000000000e+00  -1.0445387878168545e-04  -2.3611139923983282e-04  -3.7779331490734105e-04  -5.1224972009645403e-04  -6.2303383679244984e-04  -6.9535918542285025e-04  -7.1689174216503504e-04  -6.7843231161945905e-04  -5.7445005973388863e-04  -4.0343564081982142e-04  -1.6805135865025078e-04  1.2493413257438912e-04  4.6492840671588653e-04  8.3800613041967731e-04  1.2275888262860829e-03  1.6152846196641835e-03  1.9818508984363811e-03  2.3082364216258089e-03  2.5766551311881269e-03  2.7716420182486712e-03  2.8810419798486753e-03  2.8968858043563195e-03  2.8161130599094197e-03  2.6411096813503399e-03  2.3800380061005932e-03  2.0469486035866180e-03  1.6616758399371490e-03  1.2495320887082051e-03  8.4082817835628987e-04  4.7025918761406382e-04  1.7620463797285435e-04  0.0000000000000000e+00  0.0000000000000000e+00  -1.3194990724705842e-04  -2.7718511756316504e-04  -4.1873566802306389e-04  -5.4019889938503041e-04  -6.2660905143335083e-04  -6.6524927097631747e-04  -6.4636082816588170e-04  -5.6370965505345150e-04  -4.1497748823041136e-04  -2.0195361537450607e-04  6.9486901782794819e-05  3.8962210425920463e-04  7.4533192717853025e-04  1.1207392636754104e-03  1.4980160064920478e-03  1.8583184233252638e-03  2.1828095136516221e-03  2.4537214065322721e-03  2.6554084987339271e-03  2.7753422289450991e-03  2.8050010413692428e-03  2.7406142828840796e-03  2.5837262296320995e-03  2.3415559603758296e-03  2.0271399160248782e-03  1.6592562808330213e-03  1.2621431967989594e-03  8.6503564920273335e-04  5.0155804252843827e-04  2.0902038658299205e-04  2.7675248762140670e-05  0.0000000000000000e+00  0.0000000000000000e+00  -1.5387215943354492e-04  -3.0654013984023759e-04  -4.4183904319979907e-04  -5.4479566150391484e-04  -6.0246397565156401e-04  -6.0466362906783783e-04  -5.4458093566585319e-04  -4.1919881625691879e-04  -2.2953047721166464e-04  1.9358698707165611e-05  3.1854616378486356e-04  6.5565853702155563e-04  1.0154731791625835e-03  1.3806892005207572e-03  1.7328335079156119e-03  2.0532605891595171e-03  2.3241997693275278e-03  2.5298009826071402e-03  2.6571298482451836e-03  2.6970650933614143e-03  2.6450560664897926e-03  2.5017051221568054e-03  2.2731487342268486e-03  1.9712219623316818e-03  1.6134029042913778e-03  1.2225464749727744e-03  8.2642969549998058e-04  4.5714306094607471e-04  1.5037388533656326e-04  -5.5362597981473138e-05  -1.1948063954664301e-04  0.0000000000000000e+00  0.0000000000000000e+00  -1.6929691308080876e-04  -3.2289163441617439e-04  -4.4599463059792713e-04  -5.2559421532664464e-04  -5.5122907971443360e-04  -5.1562744821750462e-04  -4.1517859795050301e-04  -2.5021057473736166e-04  -2.5057370203551338e-05  2.5209093361383778e-04  5.6955090605861393e-04  9.1270676831688895e-04  1.2647451722316333e-03  1.6075305567605886e-03  1.9225806940872537e-03  2.1920967907848280e-03  2.3999994606053489e-03  2.5329212175620630e-03  2.5811079755790689e-03  2.5391863330224240e-03  2.4067599846106331e-03  2.1888073488443662e-03  1.8958628758414472e-03  1.5439762603804965e-03  1.1544563313659081e-03  7.5341917591165456e-04  3.7117254144711822e-04  4.1480118721887142e-05  -1.9924054034103258e-04  -3.1272434616944246e-04  -2.5960090283128745e-04  0.0000000000000000e+00  0.0000000000000000e+00  -1.7760494734385423e-04  -3.2556020333350012e-04  -4.3097082864300765e-04  -4.8324491859698740e-04  -4.7477661693062778e-04  -4.0146391978736207e-04  -2.6303433370054169e-04  -6.3160583935087389e-05  1.9064136920558111e-04  4.8732919133001595e-04  8.1285264971842769e-04  1.1508504865465480e-03  1.4834936017792677e-03  1.7924350437281966e-03  2.0598217480370593e-03  2.2693195659963519e-03  2.4071020698639561e-03  2.4627550308419163e-03  2.4300523211751857e-03  2.3075651637308736e-03  2.0990749559771232e-03  1.8137699703516530e-03  1.4662176944081062e-03  1.0761169410374305e-03  6.6784661899957354e-04  2.6984054017994974e-04  -8.6170541428759462e-05  -3.6599807512369131e-04  -5.3385584927909124e-04  -5.5317445695503287e-04  -3.8729936933493136e-04  0.0000000000000000e+00  0.0000000000000000e+00  -1.7850344530889782e-04  -3.1449431497223949e-04  -3.9741689823099419e-04  -4.1946277442488772e-04  -3.7614128815671027e-04  -2.6665870332232000e-04  -9.4087302637269055e-05  1.3468446013847890e-04  4.0921923568972007e-04  7.1600352614699381e-04  1.0391039518721362e-03  1.3609760538423471e-03  1.6633870095141001e-03  1.9284077870729971e-03  2.1394265129080700e-03  2.2821333516964467e-03  2.3454282248201869e-03  2.3222060413699563e-03  2.2099799072171078e-03  2.0113106338262021e-03  1.7340205678300913e-03  1.3911809412134324e-03  1.0008740559630525e-03  5.8574430246760567e-04  1.7236454391028611e-04  -2.0954363417863275e-04  -5.2798656385943943e-04  -7.4961377201504531e-04  -8.4060686124631800e-04  -7.6747270058294403e-04  -4.9767008525504475e-04  0.0000000000000000e+00  0.0000000000000000e+00  -1.7203914063785783e-04  -2.9027595882869829e-04  -3.4684325786518699e-04  -3.3696803451532115e-04  -2.5941100406749740e-04  -1.1669537169436972e-04  8.4885145663862738e-05  3.3547879298068128e-04  6.2209812403438147e-04  9.2923157125057720e-04  1.2396144164723844e-03  1.5351214954008319e-03  1.7977378068858990e-03  2.0105590877164403e-03  2.1587725521859530e-03  2.2305685299276027e-03  2.2179366750683591e-03  2.1173057043477744e-03  1.9299930453119951e-03  1.6624400621986224e-03  1.3262193224234942e-03  9.3781223871924890e-04  5.1816787408326404e-04  9.2066243264132819e-05  -3.1267847659721681e-04  -6.6612836040952361e-04  -9.3718976158169154e-04  -1.0945755455713524e-03  -1.1076932508879422e-03  -9.4738904682550862e-04  -5.8647857395757730e-04  0.0000000000000000e+00  0.0000000000000000e+00  -1.5860231279063615e-04  -2.5410952782074087e-04  -2.8157948731034887e-04  -2.3940157058049971e-04  -1.2959239039958548e-04  4.2131377036208617e-05  2.6650407006215127e-04  5.3107680134478752e-04  8.2077865108057257e-04  1.1186447679895628e-03  1.4066747978251359e-03  1.6667786097956938e-03  1.8817618152348614e-03  2.0363012841248113e-03  2.1178609275004923e-03  2.1175004897697608e-03  2.0305348512367205e-03  1.8570082907570507e-03  1.6019569797562361e-03  1.2754433509939433e-03  8.9235748999866304e-04  4.7199288355692648e-04  3.7416227319175821e-05  -3.8533691265363323e-04  -7.6819754294321640e-04  -1.0820767332153647e-03  -1.2978959582546912e-03  -1.3875672158760732e-03  -1.3248528776370616e-03  -1.0860356576063435e-03  -6.5033324453780961e-04  0.0000000000000000e+00  0.0000000000000000e+00  -1.3892181263757720e-04  -2.0779500290863881e-04  -2.0471258503623052e-04  -1.3121943812434422e-04  7.5424616080149720e-06  2.0291611151881939e-04  4.4303113887611545e-04  7.1330735535188317e-04  9.9713317318728123e-04  1.2766836261754733e-03  1.5338359942548285e-03  1.7511361880515053e-03  1.9127663355190949e-03  2.0054635790249797e-03  2.0193420439944681e-03  1.9485741695212582e-03  1.7918940080801360e-03  1.5528934041360298e-03  1.2400918576461195e-03  8.6677193932566121e-04  4.5058394553831871e-04  1.2935541988667865e-05  -4.2180594480345501e-04  -8.2725969901120688e-04  -1.1760769265819482e-03  -1.4410278754526384e-03  -1.5960656350262337e-03  -1.6172974852837196e-03  -1.4837930745815742e-03  -1.1781609640216240e-03  -6.8683202117522657e-04  0.0000000000000000e+00  0.0000000000000000e+00  -1.1405188991860191e-04  -1.5368760107047422e-04  -1.2000947893094083e-04  -1.7572708704158280e-05  1.4561977993485242e-04  3.5834647452881452e-04  6.0660459236622222e-04  8.7423028121563773e-04  1.1436680558150614e-03  1.3968488596540207e-03  1.6161309024118609e-03  1.7852542799896842e-03  1.8902594545355256e-03  1.9203210233166013e-03  1.8684519269231981e-03  1.7320390160032383e-03  1.5131786868527869e-03  1.2187906086850997e-03  8.6049817480332580e-04  4.5427562298455681e-04  1.9873470910591884e-05  -4.1995454758259054e-04  -8.4038887781101579e-04  -1.2156015998775471e-03  -1.5198808166099198e-03  -1.7287614115705230e-03  -1.8200959006087203e-03  -1.7749953989300016e-03  -1.5785698983184493e-03  -1.2204000865045361e-03  -6.9468175861175929e-04  0.0000000000000000e+00  0.0000000000000000e+00  -8.5352183092594382e-05  -9.4647099514021810e-05  -3.1829149727297112e-05  9.5819822423723333e-05  2.7782872150119986e-04  5.0089889550897215e-04  7.4945616040589247e-04  1.0063615404964366e-03  1.2537418927864863e-03  1.4738960698325587e-03  1.6502286322983006e-03  1.7681616938979849e-03  1.8159762612198760e-03  1.7855374695895376e-03  1.6728633274002702e-03  1.4785036674233615e-03  1.2077047849601147e-03  8.7034523659407226e-04  4.8063910677276223e-04  5.6614261162546420e-05  -3.8061579375514576e-04  -8.0775726254700420e-04  -1.2003797189674703e-03  -1.5340506578828128e-03  -1.7855062240038633e-03  -1.9337974157163096e-03  -1.9613462315642982e-03  -1.8548426582329913e-03  -1.6059117291943314e-03  -1.2114815168015602e-03  -6.7379145841225951e-04  0.0000000000000000e+00  0.0000000000000000e+00  -5.4462809960029515e-05  -3.3981069088719756e-05  5.4968981920588966e-05  2.0279707988493656e-04  3.9707578082426309e-04  6.2301362281710904e-04  8.6409545706178648e-04  1.1028535028551056e-03  1.3217267993013704e-03  1.5039627470271877e-03  1.6345124037412950e-03  1.7008713965922517e-03  1.6938206711204773e-03  1.6080257934415199e-03  1.4424599354022072e-03  1.2006237334988893e-03  8.9054461653793882e-04  5.2454841923091355e-04  1.1880680353731909e-04  -3.0732537107824864e-04  -7.3215849218533080e-04  -1.1326690024572317e-03  -1.4856111533082528e-03  -1.7686916788546281e-03  -1.96175