<?xml version="1.0"?>
<VTKFile type="UnstructuredGrid"  version="0.1"  >
<UnstructuredGrid>
<Piece  NumberOfPoints="1089" NumberOfCells="2048">
<Points>
<DataArray  type="Float64"  NumberOfComponents="3"  format="ascii">0 0 0  0.03125 0 0  0.0625 0 0  0.09375 0 0  0.125 0 0  0.15625 0 0  0.1875 0 0  0.21875 0 0  0.25 0 0  0.28125 0 0  0.3125 0 0  0.34375 0 0  0.375 0 0  0.40625 0 0  0.4375 0 0  0.46875 0 0  0.5 0 0  0.53125 0 0  0.5625 0 0  0.59375 0 0  0.625 0 0  0.65625 0 0  0.6875 0 0  0.71875 0 0  0.75 0 0  0.78125 0 0  0.8125 0 0  0.84375 0 0  0.875 0 0  0.90625 0 0  0.9375 0 0  0.96875 0 0  1 0 0  0 0.03125 0  0.03125 0.03125 0  0.0625 0.03125 0  0.09375 0.03125 0  0.125 0.03125 0  0.15625 0.03125 0  0.1875 0.03125 0  0.21875 0.03125 0  0.25 0.03125 0  0.28125 0.03125 0  0.3125 0.03125 0  0.34375 0.03125 0  0.375 0.03125 0  0.40625 0.03125 0  0.4375 0.03125 0  0.46875 0.03125 0  0.5 0.03125 0  0.53125 0.03125 0  0.5625 0.03125 0  0.59375 0.03125 0  0.625 0.03125 0  0.65625 0.03125 0  0.6875 0.03125 0  0.71875 0.03125 0  0.75 0.03125 0  0.78125 0.03125 0  0.8125 0.03125 0  0.84375 0.03125 0  0.875 0.03125 0  0.90625 0.03125 0  0.9375 0.03125 0  0.96875 0.03125 0  1 0.03125 0  0 0.0625 0  0.03125 0.0625 0  0.0625 0.0625 0  0.09375 0.0625 0  0.125 0.0625 0  0.15625 0.0625 0  0.1875 0.0625 0  0.21875 0.0625 0  0.25 0.0625 0  0.28125 0.0625 0  0.3125 0.0625 0  0.34375 0.0625 0  0.375 0.0625 0  0.40625 0.0625 0  0.4375 0.0625 0  0.46875 0.0625 0  0.5 0.0625 0  0.53125 0.0625 0  0.5625 0.0625 0  0.59375 0.0625 0  0.625 0.0625 0  0.65625 0.0625 0  0.6875 0.0625 0  0.71875 0.0625 0  0.75 0.0625 0  0.78125 0.0625 0  0.8125 0.0625 0  0.84375 0.0625 0  0.875 0.0625 0  0.90625 0.0625 0  0.9375 0.0625 0  0.96875 0.0625 0  1 0.0625 0  0 0.09375 0  0.03125 0.09375 0  0.0625 0.09375 0  0.09375 0.09375 0  0.125 0.09375 0  0.15625 0.09375 0  0.1875 0.09375 0  0.21875 0.09375 0  0.25 0.09375 0  0.28125 0.09375 0  0.3125 0.09375 0  0.34375 0.09375 0  0.375 0.09375 0  0.40625 0.09375 0  0.4375 0.09375 0  0.46875 0.09375 0  0.5 0.09375 0  0.53125 0.09375 0  0.5625 0.09375 0  0.59375 0.09375 0  0.625 0.09375 0  0.65625 0.09375 0  0.6875 0.09375 0  0.71875 0.09375 0  0.75 0.09375 0  0.78125 0.09375 0  0.8125 0.09375 0  0.84375 0.09375 0  0.875 0.09375 0  0.90625 0.09375 0  0.9375 0.09375 0  0.96875 0.09375 0  1 0.09375 0  0 0.125 0  0.03125 0.125 0  0.0625 0.125 0  0.09375 0.125 0  0.125 0.125 0  0.15625 0.125 0  0.1875 0.125 0  0.21875 0.125 0  0.25 0.125 0  0.28125 0.125 0  0.3125 0.125 0  0.34375 0.125 0  0.375 0.125 0  0.40625 0.125 0  0.4375 0.125 0  0.46875 0.125 0  0.5 0.125 0  0.53125 0.125 0  0.5625 0.125 0  0.59375 0.125 0  0.625 0.125 0  0.65625 0.125 0  0.6875 0.125 0  0.71875 0.125 0  0.75 0.125 0  0.78125 0.125 0  0.8125 0.125 0  0.84375 0.125 0  0.875 0.125 0  0.90625 0.125 0  0.9375 0.125 0  0.96875 0.125 0  1 0.125 0  0 0.15625 0  0.03125 0.15625 0  0.0625 0.15625 0  0.09375 0.15625 0  0.125 0.15625 0  0.15625 0.15625 0  0.1875 0.15625 0  0.21875 0.15625 0  0.25 0.15625 0  0.28125 0.15625 0  0.3125 0.15625 0  0.34375 0.15625 0  0.375 0.15625 0  0.40625 0.15625 0  0.4375 0.15625 0  0.46875 0.15625 0  0.5 0.15625 0  0.53125 0.15625 0  0.5625 0.15625 0  0.59375 0.15625 0  0.625 0.15625 0  0.65625 0.15625 0  0.6875 0.15625 0  0.71875 0.15625 0  0.75 0.15625 0  0.78125 0.15625 0  0.8125 0.15625 0  0.84375 0.15625 0  0.875 0.15625 0  0.90625 0.15625 0  0.9375 0.15625 0  0.96875 0.15625 0  1 0.15625 0  0 0.1875 0  0.03125 0.1875 0  0.0625 0.1875 0  0.09375 0.1875 0  0.125 0.1875 0  0.15625 0.1875 0  0.1875 0.1875 0  0.21875 0.1875 0  0.25 0.1875 0  0.28125 0.1875 0  0.3125 0.1875 0  0.34375 0.1875 0  0.375 0.1875 0  0.40625 0.1875 0  0.4375 0.1875 0  0.46875 0.1875 0  0.5 0.1875 0  0.53125 0.1875 0  0.5625 0.1875 0  0.59375 0.1875 0  0.625 0.1875 0  0.65625 0.1875 0  0.6875 0.1875 0  0.71875 0.1875 0  0.75 0.1875 0  0.78125 0.1875 0  0.8125 0.1875 0  0.84375 0.1875 0  0.875 0.1875 0  0.90625 0.1875 0  0.9375 0.1875 0  0.96875 0.1875 0  1 0.1875 0  0 0.21875 0  0.03125 0.21875 0  0.0625 0.21875 0  0.09375 0.21875 0  0.125 0.21875 0  0.15625 0.21875 0  0.1875 0.21875 0  0.21875 0.21875 0  0.25 0.21875 0  0.28125 0.21875 0  0.3125 0.21875 0  0.34375 0.21875 0  0.375 0.21875 0  0.40625 0.21875 0  0.4375 0.21875 0  0.46875 0.21875 0  0.5 0.21875 0  0.53125 0.21875 0  0.5625 0.21875 0  0.59375 0.21875 0  0.625 0.21875 0  0.65625 0.21875 0  0.6875 0.21875 0  0.71875 0.21875 0  0.75 0.21875 0  0.78125 0.21875 0  0.8125 0.21875 0  0.84375 0.21875 0  0.875 0.21875 0  0.90625 0.21875 0  0.9375 0.21875 0  0.96875 0.21875 0  1 0.21875 0  0 0.25 0  0.03125 0.25 0  0.0625 0.25 0  0.09375 0.25 0  0.125 0.25 0  0.15625 0.25 0  0.1875 0.25 0  0.21875 0.25 0  0.25 0.25 0  0.28125 0.25 0  0.3125 0.25 0  0.34375 0.25 0  0.375 0.25 0  0.40625 0.25 0  0.4375 0.25 0  0.46875 0.25 0  0.5 0.25 0  0.53125 0.25 0  0.5625 0.25 0  0.59375 0.25 0  0.625 0.25 0  0.65625 0.25 0  0.6875 0.25 0  0.71875 0.25 0  0.75 0.25 0  0.78125 0.25 0  0.8125 0.25 0  0.84375 0.25 0  0.875 0.25 0  0.90625 0.25 0  0.9375 0.25 0  0.96875 0.25 0  1 0.25 0  0 0.28125 0  0.03125 0.28125 0  0.0625 0.28125 0  0.09375 0.28125 0  0.125 0.28125 0  0.15625 0.28125 0  0.1875 0.28125 0  0.21875 0.28125 0  0.25 0.28125 0  0.28125 0.28125 0  0.3125 0.28125 0  0.34375 0.28125 0  0.375 0.28125 0  0.40625 0.28125 0  0.4375 0.28125 0  0.46875 0.28125 0  0.5 0.28125 0  0.53125 0.28125 0  0.5625 0.28125 0  0.59375 0.28125 0  0.625 0.28125 0  0.65625 0.28125 0  0.6875 0.28125 0  0.71875 0.28125 0  0.75 0.28125 0  0.78125 0.28125 0  0.8125 0.28125 0  0.84375 0.28125 0  0.875 0.28125 0  0.90625 0.28125 0  0.9375 0.28125 0  0.96875 0.28125 0  1 0.28125 0  0 0.3125 0  0.03125 0.3125 0  0.0625 0.3125 0  0.09375 0.3125 0  0.125 0.3125 0  0.15625 0.3125 0  0.1875 0.3125 0  0.21875 0.3125 0  0.25 0.3125 0  0.28125 0.3125 0  0.3125 0.3125 0  0.34375 0.3125 0  0.375 0.3125 0  0.40625 0.3125 0  0.4375 0.3125 0  0.46875 0.3125 0  0.5 0.3125 0  0.53125 0.3125 0  0.5625 0.3125 0  0.59375 0.3125 0  0.625 0.3125 0  0.65625 0.3125 0  0.6875 0.3125 0  0.71875 0.3125 0  0.75 0.3125 0  0.78125 0.3125 0  0.8125 0.3125 0  0.84375 0.3125 0  0.875 0.3125 0  0.90625 0.3125 0  0.9375 0.3125 0  0.96875 0.3125 0  1 0.3125 0  0 0.34375 0  0.03125 0.34375 0  0.0625 0.34375 0  0.09375 0.34375 0  0.125 0.34375 0  0.15625 0.34375 0  0.1875 0.34375 0  0.21875 0.34375 0  0.25 0.34375 0  0.28125 0.34375 0  0.3125 0.34375 0  0.34375 0.34375 0  0.375 0.34375 0  0.40625 0.34375 0  0.4375 0.34375 0  0.46875 0.34375 0  0.5 0.34375 0  0.53125 0.34375 0  0.5625 0.34375 0  0.59375 0.34375 0  0.625 0.34375 0  0.65625 0.34375 0  0.6875 0.34375 0  0.71875 0.34375 0  0.75 0.34375 0  0.78125 0.34375 0  0.8125 0.34375 0  0.84375 0.34375 0  0.875 0.34375 0  0.90625 0.34375 0  0.9375 0.34375 0  0.96875 0.34375 0  1 0.34375 0  0 0.375 0  0.03125 0.375 0  0.0625 0.375 0  0.09375 0.375 0  0.125 0.375 0  0.15625 0.375 0  0.1875 0.375 0  0.21875 0.375 0  0.25 0.375 0  0.28125 0.375 0  0.3125 0.375 0  0.34375 0.375 0  0.375 0.375 0  0.40625 0.375 0  0.4375 0.375 0  0.46875 0.375 0  0.5 0.375 0  0.53125 0.375 0  0.5625 0.375 0  0.59375 0.375 0  0.625 0.375 0  0.65625 0.375 0  0.6875 0.375 0  0.71875 0.375 0  0.75 0.375 0  0.78125 0.375 0  0.8125 0.375 0  0.84375 0.375 0  0.875 0.375 0  0.90625 0.375 0  0.9375 0.375 0  0.96875 0.375 0  1 0.375 0  0 0.40625 0  0.03125 0.40625 0  0.0625 0.40625 0  0.09375 0.40625 0  0.125 0.40625 0  0.15625 0.40625 0  0.1875 0.40625 0  0.21875 0.40625 0  0.25 0.40625 0  0.28125 0.40625 0  0.3125 0.40625 0  0.34375 0.40625 0  0.375 0.40625 0  0.40625 0.40625 0  0.4375 0.40625 0  0.46875 0.40625 0  0.5 0.40625 0  0.53125 0.40625 0  0.5625 0.40625 0  0.59375 0.40625 0  0.625 0.40625 0  0.65625 0.40625 0  0.6875 0.40625 0  0.71875 0.40625 0  0.75 0.40625 0  0.78125 0.40625 0  0.8125 0.40625 0  0.84375 0.40625 0  0.875 0.40625 0  0.90625 0.40625 0  0.9375 0.40625 0  0.96875 0.40625 0  1 0.40625 0  0 0.4375 0  0.03125 0.4375 0  0.0625 0.4375 0  0.09375 0.4375 0  0.125 0.4375 0  0.15625 0.4375 0  0.1875 0.4375 0  0.21875 0.4375 0  0.25 0.4375 0  0.28125 0.4375 0  0.3125 0.4375 0  0.34375 0.4375 0  0.375 0.4375 0  0.40625 0.4375 0  0.4375 0.4375 0  0.46875 0.4375 0  0.5 0.4375 0  0.53125 0.4375 0  0.5625 0.4375 0  0.59375 0.4375 0  0.625 0.4375 0  0.65625 0.4375 0  0.6875 0.4375 0  0.71875 0.4375 0  0.75 0.4375 0  0.78125 0.4375 0  0.8125 0.4375 0  0.84375 0.4375 0  0.875 0.4375 0  0.90625 0.4375 0  0.9375 0.4375 0  0.96875 0.4375 0  1 0.4375 0  0 0.46875 0  0.03125 0.46875 0  0.0625 0.46875 0  0.09375 0.46875 0  0.125 0.46875 0  0.15625 0.46875 0  0.1875 0.46875 0  0.21875 0.46875 0  0.25 0.46875 0  0.28125 0.46875 0  0.3125 0.46875 0  0.34375 0.46875 0  0.375 0.46875 0  0.40625 0.46875 0  0.4375 0.46875 0  0.46875 0.46875 0  0.5 0.46875 0  0.53125 0.46875 0  0.5625 0.46875 0  0.59375 0.46875 0  0.625 0.46875 0  0.65625 0.46875 0  0.6875 0.46875 0  0.71875 0.46875 0  0.75 0.46875 0  0.78125 0.46875 0  0.8125 0.46875 0  0.84375 0.46875 0  0.875 0.46875 0  0.90625 0.46875 0  0.9375 0.46875 0  0.96875 0.46875 0  1 0.46875 0  0 0.5 0  0.03125 0.5 0  0.0625 0.5 0  0.09375 0.5 0  0.125 0.5 0  0.15625 0.5 0  0.1875 0.5 0  0.21875 0.5 0  0.25 0.5 0  0.28125 0.5 0  0.3125 0.5 0  0.34375 0.5 0  0.375 0.5 0  0.40625 0.5 0  0.4375 0.5 0  0.46875 0.5 0  0.5 0.5 0  0.53125 0.5 0  0.5625 0.5 0  0.59375 0.5 0  0.625 0.5 0  0.65625 0.5 0  0.6875 0.5 0  0.71875 0.5 0  0.75 0.5 0  0.78125 0.5 0  0.8125 0.5 0  0.84375 0.5 0  0.875 0.5 0  0.90625 0.5 0  0.9375 0.5 0  0.96875 0.5 0  1 0.5 0  0 0.53125 0  0.03125 0.53125 0  0.0625 0.53125 0  0.09375 0.53125 0  0.125 0.53125 0  0.15625 0.53125 0  0.1875 0.53125 0  0.21875 0.53125 0  0.25 0.53125 0  0.28125 0.53125 0  0.3125 0.53125 0  0.34375 0.53125 0  0.375 0.53125 0  0.40625 0.53125 0  0.4375 0.53125 0  0.46875 0.53125 0  0.5 0.53125 0  0.53125 0.53125 0  0.5625 0.53125 0  0.59375 0.53125 0  0.625 0.53125 0  0.65625 0.53125 0  0.6875 0.53125 0  0.71875 0.53125 0  0.75 0.53125 0  0.78125 0.531
[...]
<PointData  Scalars="f_946"> 
<DataArray  type="Float64"  Name="f_946"  format="ascii">0.0000000000000000e+00  0.0000000000000000e+00  0.0000000000000000e+00  0.0000000000000000e+00  0.0000000000000000e+00  0.0000000000000000e+00  0.0000000000000000e+00  0.0000000000000000e+00  0.0000000000000000e+00  0.0000000000000000e+00  0.0000000000000000e+00  0.0000000000000000e+00  0.0000000000000000e+00  0.0000000000000000e+00  0.0000000000000000e+00  0.0000000000000000e+00  0.0000000000000000e+00  0.0000000000000000e+00  0.0000000000000000e+00  0.0000000000000000e+00  0.0000000000000000e+00  0.0000000000000000e+00  0.0000000000000000e+00  0.0000000000000000e+00  0.0000000000000000e+00  0.0000000000000000e+00  0.0000000000000000e+00  0.0000000000000000e+00  0.0000000000000000e+00  0.0000000000000000e+00  0.0000000000000000e+00  0.0000000000000000e+00  0.0000000000000000e+00  0.0000000000000000e+00  6.1164860881787351e-05  1.0509370102578224e-04  1.3057089211530176e-04  1.3725374779219313e-04  1.2573518458833949e-04  9.7549657023965342e-05  5.5123236824286548e-05  1.6712046144798376e-06  -5.8951119801156637e-05  -1.2243643479384336e-04  -1.8424275671484469e-04  -2.3982896632704365e-04  -2.8489677537073960e-04  -3.1562701461494702e-04  -3.2889846886773391e-04  -3.2247839533010319e-04  -2.9517535330292333e-04  -2.4694701004297770e-04  -1.7895811967606756e-04  -9.3586889416588659e-05  5.6185972093780734e-06  1.1402821483223746e-04  2.2605141638151749e-04  3.3527602761307396e-04  4.3459868255363299e-04  5.1630647294978460e-04  5.7204053328413496e-04  5.9250859177709114e-04  5.6665542221899512e-04  4.7956216872471757e-04  3.0699926041646841e-04  4.7783347680335573e-17  0.0000000000000000e+00  1.0250651188775184e-04  1.7235995933907039e-04  2.0826945481048492e-04  2.1053367494761055e-04  1.8111007255099815e-04  1.2358163193157412e-04  4.3025157865320129e-05  -5.4210549356614735e-05  -1.6080423949885181e-04  -2.6882356918818406e-04  -3.7012955487170096e-04  -4.5680345358659058e-04  -5.2157441879305266e-04  -5.5822632806779016e-04  -5.6196328484200281e-04  -5.2971545209649397e-04  -4.6037001198808575e-04  -3.5491609492038778e-04  -2.1649737639639621e-04  -5.0371631973272768e-05  1.3621719226611373e-04  3.3424177711338654e-04  5.3314834135004263e-04  7.2113688544228616e-04  8.8542033404287457e-04  1.0123972019401850e-03  1.0876364460588039e-03  1.0955061399253174e-03  1.0181474525752243e-03  8.3324841893211987e-04  5.0968283820500282e-04  9.3730408106525972e-17  0.0000000000000000e+00  1.2662584363162767e-04  2.0734941024069982e-04  2.4171687348045409e-04  2.3142146569585242e-04  1.8033374654319312e-04  9.4394712854661833e-05  -1.8619459137822481e-05  -1.4944661126276015e-04  -2.8778224379488737e-04  -4.2279387948634950e-04  -5.4367926446566295e-04  -6.4023958727249530e-04  -7.0343831702227022e-04  -7.2591708438689284e-04  -7.0244226982030950e-04  -6.3025953749650324e-04  -5.0933838371369777e-04  -3.4249468561529939e-04  -1.3538607905813627e-04  1.0361736562169988e-04  3.6367642849216564e-04  6.3182026836927641e-04  8.9334867146623198e-04  1.1322582342922494e-03  1.3316378991941047e-03  1.4739608238992785e-03  1.5411733323782428e-03  1.5144440000962600e-03  1.3733879338041488e-03  1.0945508444701879e-03  6.4905396531696191e-04  1.3607546151380099e-16  0.0000000000000000e+00  1.3587259743327255e-04  2.1507736462200722e-04  2.3869450510266566e-04  2.1034803550751269e-04  1.3616180518492838e-04  2.4554637135590363e-05  -1.1411069114042327e-04  -2.6800353835143564e-04  -4.2439998225618503e-04  -5.7032497113207459e-04  -6.9322816556161015e-04  -7.8165819794001612e-04  -8.2590033748108915e-04  -8.1854448623500109e-04  -7.5495400836207704e-04  -6.3361098354074077e-04  -4.5631990768042752e-04  -2.2825942392437626e-04  4.2119896403819412e-05  3.4334462335150473e-04  6.6129779254636700e-04  9.7970209818659670e-04  1.2806705329816981e-03  1.5452776254777367e-03  1.7540933691433391e-03  1.8876099817686232e-03  1.9264793969707705e-03  1.8514703734459625e-03  1.6430607285128906e-03  1.2806370277346768e-03  7.4146024131016564e-04  1.7319121124709863e-16  0.0000000000000000e+00  1.3244840041298951e-04  2.0020758772664252e-04  2.0638473279761121e-04  1.5686743163041694e-04  6.0179979929658733e-05  -7.2834181058800684e-05  -2.2948257432567343e-04  -3.9581851417927472e-04  -5.5732741527200758e-04  -6.9966740553553675e-04  -8.0942479917112120e-04  -8.7484453290834208e-04  -8.8649709658802922e-04  -8.3784676403234060e-04  -7.2569093557672826e-04  -5.5044698842199714e-04  -3.1627089430702471e-04  -3.1000779954964974e-05  2.9407182517149355e-04  6.4459034627972756e-04  1.0036584440692997e-03  1.3524697925983986e-03  1.6710006982990633e-03  1.9387154300877230e-03  2.1352267893107735e-03  2.2408490830403416e-03  2.2369793565073515e-03  2.1062503190374393e-03  1.8324252221733062e-03  1.4000697654508731e-03  7.9416322245770554e-04  2.0365131985892053e-16  0.0000000000000000e+00  1.1847535944861914e-04  1.6717135668404062e-04  1.5152246709741052e-04  7.9823628131803215e-05  -3.7029348029293807e-05  -1.8597576394074888e-04  -3.5237446805061468e-04  -5.2070248107669026e-04  -6.7532872947800859e-04  -8.0132069728955369e-04  -8.8524059788530618e-04  -9.1588847154297492e-04  -8.8495241701064264e-04  -7.8753088189731368e-04  -6.2249838883221553e-04  -3.9269400737864757e-04  -1.0492097719688731e-04  2.3024421937928308e-04  5.9882475278033587e-04  9.8397944470152154e-04  1.3666731455195258e-03  1.7264437144312028e-03  2.0422200073570984e-03  2.2931391316167726e-03  2.4593074350357513e-03  2.5224493407738358e-03  2.4663932416497669e-03  2.2773576436931897e-03  1.9440289483199091e-03  1.4574705332556226e-03  8.1097073786590146e-04  2.2628522245754005e-16  0.0000000000000000e+00  9.6035703590517836e-05  1.2023306727606056e-04  8.0474272239103306e-05  -1.2567560991202931e-05  -1.4581106326316817e-04  -3.0431853031587242e-04  -4.7198272112911055e-04  -6.3230860869858962e-04  -7.6924627892122066e-04  -8.6802923862194792e-04  -9.1597254711484055e-04  -9.0318742033618227e-04  -8.2317326636241472e-04  -6.7325426465311700e-04  -4.5483541143359618e-04  -1.7346204458552279e-04  1.6132310822798701e-04  5.3632080825966044e-04  9.3519900680955059e-04  1.3391741475989871e-03  1.7278155931481631e-03  2.0799307953875967e-03  2.3744827208758146e-03  2.5914872346557427e-03  2.7128373006821693e-03  2.7230038855380334e-03  2.6095716248671907e-03  2.3635823459657868e-03  1.9796830321976988e-03  1.4561064250083189e-03  7.9454569524586849e-04  2.4022311085933110e-16  0.0000000000000000e+00  6.7187439225654781e-05  6.3512529715595983e-05  -7.3971827248275890e-07  -1.1270173757990665e-04  -2.5742820100535524e-04  -4.1855395864406897e-04  -5.7906510181696125e-04  -7.2213860530701002e-04  -8.3200340140593410e-04  -8.9477524852810131e-04  -8.9921943531034998e-04  -8.3739915275093946e-04  -7.0517317197907325e-04  -5.0251399382608697e-04  -2.3362661165672594e-04  9.3141954562150225e-05  4.6560158479469482e-04  8.6821491869995548e-04  1.2827682488774639e-03  1.6891859947911758e-03  2.0664490850222927e-03  2.3935711061282561e-03  2.6505818523704372e-03  2.8194663009397658e-03  2.8850086060683289e-03  2.8354959610352726e-03  2.6632467188990594e-03  2.3649414192914442e-03  1.9417540463252392e-03  1.3993017442303635e-03  7.4744839649312778e-04  2.4492935982947064e-16  0.0000000000000000e+00  3.3960590896273297e-05  9.7318773434329486e-07  -8.6467423234475038e-05  -2.1361677392604805e-04  -3.6409914944765531e-04  -5.2065525627700837e-04  -6.6597447296604106e-04  -7.8356385671002338e-04  -8.5860498614015457e-04  -8.7875084796101843e-04  -8.3481826047998586e-04  -7.2133669877477713e-04  -5.3692158843601789e-04  -2.8444888810771896e-04  2.8982313002329230e-05  3.9230183983738508e-04  7.9092691384147207e-04  1.2074082806177999e-03  1.6222353584066096e-03  2.0147632205750332e-03  2.3642173228253238e-03  2.6507271300160173e-03  2.8563374963564980e-03  2.9659471515900426e-03  2.9681272393944358e-03  2.8557797453884204e-03  2.6266059107924455e-03  2.2833681014489127e-03  1.8339441015501334e-03  1.2911881750437004e-03  6.7262446086188699e-04  2.4022311085933110e-16  0.0000000000000000e+00  -1.6617143862741185e-06  -6.3615260145932079e-05  -1.7147760712130783e-04  -3.0905560881555605e-04  -4.5906305251933177e-04  -6.0393649516399250e-04  -7.2670191027904285e-04  -8.1184257526181747e-04  -8.4611919550536818e-04  -8.1929607880293354e-04  -7.2473208578482939e-04  -5.5980192901866621e-04  -3.2612185669420035e-04  -2.9563489643474883e-05  3.1994987025109334e-04  7.0885926702928936e-04  1.1205825163829175e-03  1.5362970531012099e-03  1.9358583300622678e-03  2.2988116091027799e-03  2.6054497298884094e-03  2.8378665141701731e-03  2.9809551808749335e-03  3.0233036475459940e-03  2.9579439927337470e-03  2.7829216207827523e-03  2.5016605161688465e-03  2.1231138996590238e-03  1.6617034423326293e-03  1.1370632144588888e-03  5.7361430437558036e-04  2.2628522245754005e-16  0.0000000000000000e+00  -3.7773327102293662e-05  -1.2673203777117947e-04  -2.5103267630903481e-04  -3.9354711689128241e-04  -5.3665770940436452e-04  -6.6311568049690073e-04  -7.5691301126976085e-04  -8.0411812573061292e-04  -7.9362804224608618e-04  -7.1779412560674105e-04  -5.7288503648569855e-04  -3.5935864226990799e-04  -8.1924146099587869e-05  2.5061387883754116e-04  6.2572701069343872e-04  1.0277367219894890e-03  1.4385667885808834e-03  1.8386416541479877e-03  2.2078904277575973e-03  2.5268104691181792e-03  2.7775411006531470e-03  2.9448970364072125e-03  3.0173128478333533e-03  2.9876542350334434e-03  2.8538589326252417e-03  2.6193795802033071e-03  2.2934123823155073e-03  1.8909081975682085e-03  1.4323758879085102e-03  9.4349995377540630e-04  4.5460428015314802e-04  2.0365131985892061e-16  0.0000000000000000e+00  -7.2582596583429214e-05  -1.8517114254237507e-04  -3.2097148707289913e-04  -4.6249292330631520e-04  -5.9239659326880412e-04  -6.9436812155221350e-04  -7.5396454705028981e-04  -7.5938749418780205e-04  -7.0213857901557652e-04  -5.7751913523937382e-04  -3.8494416808057541e-04  -1.2804970906662994e-04  1.8541700034069297e-04  5.4392428708016638e-04  9.3268876225102715e-04  1.3343926115337759e-03  1.7300547498735885e-03  2.1000172014464524e-03  2.4250020086252211e-03  2.6871900737208687e-03  2.8712718829460027e-03  2.9654211737281111e-03  2.9621463474617804e-03  2.8589807047365579e-03  2.6589811905486371e-03  2.3710159637529982e-03  2.0098331999817698e-03  1.5959164757933242e-03  1.1551449694074400e-03  7.1828863779305197e-04  3.2037853718910880e-04  1.7319121124709868e-16  0.0000000000000000e+00  -1.0445388317423514e-04  -2.3611141667461907e-04  -3.7779335346347850e-04  -5.1224978567943058e-04  -6.2303393320936595e-04  -6.9535931430331210e-04  -7.1689190162363414e-04  -6.7843249788371307e-04  -5.7445026570757118e-04  -4.0343585663432657e-04  -1.6805157261942649e-04  1.2493393394927277e-04  4.6492823737953604e-04  8.3800600409328352e-04  1.2275887563077126e-03  1.6152846170652349e-03  1.9818509731625994e-03  2.3082365789500736e-03  2.5766553742269382e-03  2.7716423446436655e-03  2.8810423836874710e-03  2.8968862747474344e-03  2.8161135826053063e-03  2.6411102382616347e-03  2.3800385755817222e-03  2.0469491622024383e-03  1.6616763612843366e-03  1.2495325494324971e-03  8.4082855378125876e-04  4.7025945513334833e-04  1.7620477884397467e-04  1.3607546151380099e-16  0.0000000000000000e+00  -1.3194991017550844e-04  -2.7718512956169568e-04  -4.1873569449250164e-04  -5.4019894436128230e-04  -6.2660911788539608e-04  -6.6524935973888422e-04  -6.4636093830193475e-04  -5.6370978373115888e-04  -4.1497763023401468e-04  -2.0195376416874689e-04  6.9486753926123468e-05  3.8962196679091787e-04  7.4533180985600356e-04  1.1207391754727153e-03  1.4980159573078078e-03  1.8583184200350502e-03  2.1828095635846659e-03  2.4537215139926183e-03  2.6554086650498049e-03  2.7753424532549476e-03  2.8050013188293810e-03  2.7406146064415382e-03  2.5837265887006522e-03  2.3415563433460407e-03  2.0271403078304662e-03  1.6592566653310103e-03  1.2621435564338368e-03  8.6503596666490101e-04  5.0155830178438832e-04  2.0902057123586837e-04  2.7675345503713755e-05  9.3730408106525984e-17  0.0000000000000000e+00  -1.5387216116567281e-04  -3.0654014595706859e-04  -4.4183905650832349e-04  -5.4479568413641141e-04  -6.0246400922947876e-04  -6.0466367409357791e-04  -5.4458099168861601e-04  -4.1919888180726866e-04  -2.2953054966635966e-04  1.9358622880404075e-05  3.1854608859138711e-04  6.5565846656735066e-04  1.0154731185657920e-03  1.3806891545735389e-03  1.7328334810173228e-03  2.0532605855712797e-03  2.3241997933074188e-03  2.5298010357870104e-03  2.6571299312001598e-03  2.6970652061883843e-03  2.6450562067458355e-03  2.5017052861245198e-03  2.2731489162092777e-03  1.9712221563856769e-03  1.6134031035759944e-03  1.2225466707637134e-03  8.2642987994008266e-04  4.5714322282647268e-04  1.5037401630775549e-04  -5.5362504759348674e-05  -1.1948059124629318e-04  4.7783347680335653e-17  0.0000000000000000e+00  -1.6929691318615350e-04  -3.2289163410603673e-04  -4.4599463025268230e-04  -5.2559421488315283e-04  -5.5122907929388068e-04  -5.1562744799735455e-04  -4.1517859793778445e-04  -2.5021057504913001e-04  -2.5057370751898780e-05  2.5209093264516466e-04  5.6955090501523077e-04  9.1270676732733036e-04  1.2647451705255683e-03  1.6075305546212600e-03  1.9225806909551320e-03  2.1920967875318307e-03  2.3999994572875103e-03  2.5329212136682593e-03  2.5811079724292010e-03  2.5391863306741158e-03  2.4067599822590086e-03  2.1888073464974463e-03  1.8958628732570599e-03  1.5439762584555372e-03  1.1544563301303867e-03  7.5341917526582883e-04  3.7117254138975780e-04  4.1480117374365018e-05  -1.9924054079903893e-04  -3.1272434616916843e-04  -2.5960090290764407e-04  2.9995195653237152e-32  0.0000000000000000e+00  -1.7760494586488754e-04  -3.2556019700010451e-04  -4.3097081443438205e-04  -4.8324489496598053e-04  -4.7477658268363365e-04  -4.0146387413741991e-04  -2.6303427764334114e-04  -6.3160518291340007e-05  1.9064144088409146e-04  4.8732926592683079e-04  8.1285272308058432e-04  1.1508505543379940e-03  1.4834936583999828e-03  1.7924350846005403e-03  2.0598217685306869e-03  2.2693195622919102e-03  2.4071020385144221e-03  2.4627549708212265e-03  2.4300522311660050e-03  2.3075650450647550e-03  2.0990748105327861e-03  1.8137698016434944e-03  1.4662175065908722e-03  1.0761167426988905e-03  6.6784641714201509e-04  2.6984034233834553e-04  -8.6170725179496310e-05  -3.6599823775387841e-04  -5.3385598169644610e-04  -5.5317455161769946e-04  -3.8729941826218944e-04  -4.7783347680335604e-17  0.0000000000000000e+00  -1.7850344229188193e-04  -3.1449430253980941e-04  -3.9741687071900150e-04  -4.1946272851202393e-04  -3.7614122107394732e-04  -2.6665861417397851e-04  -9.4087192118008645e-05  1.3468458885995682e-04  4.0921937687420085e-04  7.1600367334372084e-04  1.0391040969917470e-03  1.3609761879476712e-03  1.6633871228237812e-03  1.9284078703587504e-03  2.1394265563605130e-03  2.2821333476969923e-03  2.3454281681786551e-03  2.3222059274306123e-03  2.2099797347467087e-03  2.0113104037629836e-03  1.7340202854501385e-03  1.3911806122763604e-03  1.0008736909281613e-03  5.8574391466792441e-04  1.7236414850546611e-04  -2.0954402135736627e-04  -5.2798692450212181e-04  -7.4961408966656151e-04  -8.4060712019162764e-04  -7.6747288483428044e-04  -4.9767018176442857e-04  -9.3730408106525935e-17  0.0000000000000000e+00  -1.7203913586930596e-04  -2.9027594034903258e-04  -3.4684321853229588e-04  -3.3696796775714577e-04  -2.5941090664545474e-04  -1.1669524194349301e-04  8.4885306164642071e-05  3.3547897907648672e-04  6.2209832919318808e-04  9.2923178530676664e-04  1.2396146277279252e-03  1.5351216909358367e-03  1.7977379723626286e-03  2.0105592093460217e-03  2.1587726169685004e-03  2.2305685263585948e-03  2.2179365944749174e-03  2.1173055408560681e-03  1.9299927965212849e-03  1.6624397305317062e-03  1.3262189132668412e-03  9.3781176264068344e-04  5.1816734559551048e-04  9.2065681718211945e-05  -3.1267904974768834e-04  -6.6612892075901264e-04  -9.3719028474981148e-04  -1.0945760067253008e-03  -1.1076936267265802e-03  -9.4738931399693249e-04  -5.8647871436907917e-04  -1.3607546151380094e-16  0.0000000000000000e+00  -1.5860230682712695e-04  -2.5410950465491744e-04  -2.8157943745772684e-04  -2.3940148593742938e-04  -1.2959226649278399e-04  4.2131541971662800e-05  2.6650427383848041e-04  5.3107703841653864e-04  8.2077891220158627e-04  1.1186450410361759e-03  1.4066750672365735e-03  1.6667788590689903e-03  1.8817620272253976e-03  2.0363014407368402e-03  2.1178610112354557e-03  2.1175004864185123e-03  2.0305347499934984e-03  1.8570080836626812e-03  1.6019566638114102e-03  1.2754429287918922e-03  8.9235697003675618e-04  4.7199227861516313e-04  3.7415556464415189e-05  -3.8533762652526171e-04  -7.6819827168150834e-04  -1.0820774462708682e-03  -1.2978966242627732e-03  -1.3875678033041794e-03  -1.3248533554849340e-03  -1.0860359976507250e-03  -6.5033342357717627e-04  -1.7319121124709863e-16  0.0000000000000000e+00  -1.3892180539345697e-04  -2.0779497598843316e-04  -2.0471252628740527e-04  -1.3121933831219956e-04  7.5426069603007351e-06  2.0291630471774846e-04  4.4303137839893370e-04  7.1330763361243665e-04  9.9713348009980440e-04  1.2766839470700342e-03  1.5338363115790787e-03  1.7511364820201880e-03  1.9127665850808273e-03  2.0054637633364070e-03  2.0193421429204328e-03  1.9485741663985928e-03  1.7918938894685710e-03  1.5528931615549357e-03  1.2400914870995816e-03  8.6677144398628059e-04  4.5058333482700386e-04  1.2934832142708075e-05  -4.2180673321456919e-04  -8.2726053770654229e-04  -1.1760777822162893e-03  -1.4410287135405708e-03  -1.5960664177065986e-03  -1.6172981761204408e-03  -1.4837936361999371e-03  -1.1781613634754273e-03  -6.8683223149745842e-04  -2.0365131985892056e-16  0.0000000000000000e+00  -1.1405188233013994e-04  -1.5368757148796416e-04  -1.2000941425715367e-04  -1.7572599270418432e-05  1.4561994099862585e-04  3.5834668898374056e-04  6.0660485821098509e-04  8.7423059030281025e-04  1.1436683970800776e-03  1.3968492164691537e-03  1.6161312544971662e-03  1.7852546068254371e-03  1.8902597319703507e-03  1.9203212284405746e-03  1.8684520378399322e-03  1.7320390140947552e-03  1.5131785561054573e-03  1.2187903398347688e-03  8.6049776400937139e-04  4.5427507343137608e-04  1.9872793391217947e-05  -4.1995533638683469e-04  -8.4038975343425637e-04  -1.2156025308980301e-03  -1.5198817667555486e-03  -1.7287623433102084e-03  -1.8200967707094895e-03  -1.7749961653281687e-03  -1.5785705220554003e-03  -1.2204005305180288e-03  -6.9468199240632633e-04  -2.2628522245754000e-16  0.0000000000000000e+00  -8.5352175118945731e-05  -9.4647067643050670e-05  -3.1829080797428355e-05  9.5819938861291254e-05  2.7782889295302482e-04  5.0089912326442554e-04  7.4945644257395916e-04  1.0063618684914566e-03  1.2537422547888033e-03  1.4738964485347950e-03  1.6502290070730674e-03  1.7681620413018129e-03  1.8159765560399610e-03  1.7855376879060414e-03  1.6728634458623021e-03  1.4785036652647579e-03  1.2077046472791508e-03  8.7034495172602644e-04  4.8063867081327150e-04  5.6613678579897631e-05  -3.8061651311993572e-04  -8.0775810008659743e-04  -1.2003806482729917e-03  -1.5340516455502051e-03  -1.7855072327016552e-03  -1.9337984045397771e-03  -1.9613471541526373e-03  -1.8548434724793283e-03  -1.6059123927418817e-03  -1.2114819884909700e-03  -6.7379170685474832e-04  -2.4022311085933105e-16  0.0000000000000000e+00  -5.4462801616856141e-05  -3.3981036883911492e-05  5.4969052739391178e-05  2.0279719879745528e-04  3.9707595521529249e-04  6.2301385442861679e-04  8.6409574458015670e-04  1.1028538378243802e-03  1.3217271686476462e-03  1.5039631334589076e-03  1.6345127858971020e-03  1.7008717503781967e-03  1.6938209720288311e-03  1.6080260163912619e-03  1.4424600564321294e-03  1.2006237318212148e-03  8.9054447596216557e-04  5.2454812845154075e-04  1.1880635950878293e-04  -3.0732596507354604e-04  -7.3215922523728327e-04  -1.1326698556379799e-03  -1.4856120996068478e-03  -1.7686926851591123e-03  -