<?xml version="1.0"?>
<VTKFile type="UnstructuredGrid"  version="0.1"  >
<UnstructuredGrid>
<Piece  NumberOfPoints="1089" NumberOfCells="2048">
<Points>
<DataArray  type="Float64"  NumberOfComponents="3"  format="ascii">0 0 0  0.03125 0 0  0.0625 0 0  0.09375 0 0  0.125 0 0  0.15625 0 0  0.1875 0 0  0.21875 0 0  0.25 0 0  0.28125 0 0  0.3125 0 0  0.34375 0 0  0.375 0 0  0.40625 0 0  0.4375 0 0  0.46875 0 0  0.5 0 0  0.53125 0 0  0.5625 0 0  0.59375 0 0  0.625 0 0  0.65625 0 0  0.6875 0 0  0.71875 0 0  0.75 0 0  0.78125 0 0  0.8125 0 0  0.84375 0 0  0.875 0 0  0.90625 0 0  0.9375 0 0  0.96875 0 0  1 0 0  0 0.03125 0  0.03125 0.03125 0  0.0625 0.03125 0  0.09375 0.03125 0  0.125 0.03125 0  0.15625 0.03125 0  0.1875 0.03125 0  0.21875 0.03125 0  0.25 0.03125 0  0.28125 0.03125 0  0.3125 0.03125 0  0.34375 0.03125 0  0.375 0.03125 0  0.40625 0.03125 0  0.4375 0.03125 0  0.46875 0.03125 0  0.5 0.03125 0  0.53125 0.03125 0  0.5625 0.03125 0  0.59375 0.03125 0  0.625 0.03125 0  0.65625 0.03125 0  0.6875 0.03125 0  0.71875 0.03125 0  0.75 0.03125 0  0.78125 0.03125 0  0.8125 0.03125 0  0.84375 0.03125 0  0.875 0.03125 0  0.90625 0.03125 0  0.9375 0.03125 0  0.96875 0.03125 0  1 0.03125 0  0 0.0625 0  0.03125 0.0625 0  0.0625 0.0625 0  0.09375 0.0625 0  0.125 0.0625 0  0.15625 0.0625 0  0.1875 0.0625 0  0.21875 0.0625 0  0.25 0.0625 0  0.28125 0.0625 0  0.3125 0.0625 0  0.34375 0.0625 0  0.375 0.0625 0  0.40625 0.0625 0  0.4375 0.0625 0  0.46875 0.0625 0  0.5 0.0625 0  0.53125 0.0625 0  0.5625 0.0625 0  0.59375 0.0625 0  0.625 0.0625 0  0.65625 0.0625 0  0.6875 0.0625 0  0.71875 0.0625 0  0.75 0.0625 0  0.78125 0.0625 0  0.8125 0.0625 0  0.84375 0.0625 0  0.875 0.0625 0  0.90625 0.0625 0  0.9375 0.0625 0  0.96875 0.0625 0  1 0.0625 0  0 0.09375 0  0.03125 0.09375 0  0.0625 0.09375 0  0.09375 0.09375 0  0.125 0.09375 0  0.15625 0.09375 0  0.1875 0.09375 0  0.21875 0.09375 0  0.25 0.09375 0  0.28125 0.09375 0  0.3125 0.09375 0  0.34375 0.09375 0  0.375 0.09375 0  0.40625 0.09375 0  0.4375 0.09375 0  0.46875 0.09375 0  0.5 0.09375 0  0.53125 0.09375 0  0.5625 0.09375 0  0.59375 0.09375 0  0.625 0.09375 0  0.65625 0.09375 0  0.6875 0.09375 0  0.71875 0.09375 0  0.75 0.09375 0  0.78125 0.09375 0  0.8125 0.09375 0  0.84375 0.09375 0  0.875 0.09375 0  0.90625 0.09375 0  0.9375 0.09375 0  0.96875 0.09375 0  1 0.09375 0  0 0.125 0  0.03125 0.125 0  0.0625 0.125 0  0.09375 0.125 0  0.125 0.125 0  0.15625 0.125 0  0.1875 0.125 0  0.21875 0.125 0  0.25 0.125 0  0.28125 0.125 0  0.3125 0.125 0  0.34375 0.125 0  0.375 0.125 0  0.40625 0.125 0  0.4375 0.125 0  0.46875 0.125 0  0.5 0.125 0  0.53125 0.125 0  0.5625 0.125 0  0.59375 0.125 0  0.625 0.125 0  0.65625 0.125 0  0.6875 0.125 0  0.71875 0.125 0  0.75 0.125 0  0.78125 0.125 0  0.8125 0.125 0  0.84375 0.125 0  0.875 0.125 0  0.90625 0.125 0  0.9375 0.125 0  0.96875 0.125 0  1 0.125 0  0 0.15625 0  0.03125 0.15625 0  0.0625 0.15625 0  0.09375 0.15625 0  0.125 0.15625 0  0.15625 0.15625 0  0.1875 0.15625 0  0.21875 0.15625 0  0.25 0.15625 0  0.28125 0.15625 0  0.3125 0.15625 0  0.34375 0.15625 0  0.375 0.15625 0  0.40625 0.15625 0  0.4375 0.15625 0  0.46875 0.15625 0  0.5 0.15625 0  0.53125 0.15625 0  0.5625 0.15625 0  0.59375 0.15625 0  0.625 0.15625 0  0.65625 0.15625 0  0.6875 0.15625 0  0.71875 0.15625 0  0.75 0.15625 0  0.78125 0.15625 0  0.8125 0.15625 0  0.84375 0.15625 0  0.875 0.15625 0  0.90625 0.15625 0  0.9375 0.15625 0  0.96875 0.15625 0  1 0.15625 0  0 0.1875 0  0.03125 0.1875 0  0.0625 0.1875 0  0.09375 0.1875 0  0.125 0.1875 0  0.15625 0.1875 0  0.1875 0.1875 0  0.21875 0.1875 0  0.25 0.1875 0  0.28125 0.1875 0  0.3125 0.1875 0  0.34375 0.1875 0  0.375 0.1875 0  0.40625 0.1875 0  0.4375 0.1875 0  0.46875 0.1875 0  0.5 0.1875 0  0.53125 0.1875 0  0.5625 0.1875 0  0.59375 0.1875 0  0.625 0.1875 0  0.65625 0.1875 0  0.6875 0.1875 0  0.71875 0.1875 0  0.75 0.1875 0  0.78125 0.1875 0  0.8125 0.1875 0  0.84375 0.1875 0  0.875 0.1875 0  0.90625 0.1875 0  0.9375 0.1875 0  0.96875 0.1875 0  1 0.1875 0  0 0.21875 0  0.03125 0.21875 0  0.0625 0.21875 0  0.09375 0.21875 0  0.125 0.21875 0  0.15625 0.21875 0  0.1875 0.21875 0  0.21875 0.21875 0  0.25 0.21875 0  0.28125 0.21875 0  0.3125 0.21875 0  0.34375 0.21875 0  0.375 0.21875 0  0.40625 0.21875 0  0.4375 0.21875 0  0.46875 0.21875 0  0.5 0.21875 0  0.53125 0.21875 0  0.5625 0.21875 0  0.59375 0.21875 0  0.625 0.21875 0  0.65625 0.21875 0  0.6875 0.21875 0  0.71875 0.21875 0  0.75 0.21875 0  0.78125 0.21875 0  0.8125 0.21875 0  0.84375 0.21875 0  0.875 0.21875 0  0.90625 0.21875 0  0.9375 0.21875 0  0.96875 0.21875 0  1 0.21875 0  0 0.25 0  0.03125 0.25 0  0.0625 0.25 0  0.09375 0.25 0  0.125 0.25 0  0.15625 0.25 0  0.1875 0.25 0  0.21875 0.25 0  0.25 0.25 0  0.28125 0.25 0  0.3125 0.25 0  0.34375 0.25 0  0.375 0.25 0  0.40625 0.25 0  0.4375 0.25 0  0.46875 0.25 0  0.5 0.25 0  0.53125 0.25 0  0.5625 0.25 0  0.59375 0.25 0  0.625 0.25 0  0.65625 0.25 0  0.6875 0.25 0  0.71875 0.25 0  0.75 0.25 0  0.78125 0.25 0  0.8125 0.25 0  0.84375 0.25 0  0.875 0.25 0  0.90625 0.25 0  0.9375 0.25 0  0.96875 0.25 0  1 0.25 0  0 0.28125 0  0.03125 0.28125 0  0.0625 0.28125 0  0.09375 0.28125 0  0.125 0.28125 0  0.15625 0.28125 0  0.1875 0.28125 0  0.21875 0.28125 0  0.25 0.28125 0  0.28125 0.28125 0  0.3125 0.28125 0  0.34375 0.28125 0  0.375 0.28125 0  0.40625 0.28125 0  0.4375 0.28125 0  0.46875 0.28125 0  0.5 0.28125 0  0.53125 0.28125 0  0.5625 0.28125 0  0.59375 0.28125 0  0.625 0.28125 0  0.65625 0.28125 0  0.6875 0.28125 0  0.71875 0.28125 0  0.75 0.28125 0  0.78125 0.28125 0  0.8125 0.28125 0  0.84375 0.28125 0  0.875 0.28125 0  0.90625 0.28125 0  0.9375 0.28125 0  0.96875 0.28125 0  1 0.28125 0  0 0.3125 0  0.03125 0.3125 0  0.0625 0.3125 0  0.09375 0.3125 0  0.125 0.3125 0  0.15625 0.3125 0  0.1875 0.3125 0  0.21875 0.3125 0  0.25 0.3125 0  0.28125 0.3125 0  0.3125 0.3125 0  0.34375 0.3125 0  0.375 0.3125 0  0.40625 0.3125 0  0.4375 0.3125 0  0.46875 0.3125 0  0.5 0.3125 0  0.53125 0.3125 0  0.5625 0.3125 0  0.59375 0.3125 0  0.625 0.3125 0  0.65625 0.3125 0  0.6875 0.3125 0  0.71875 0.3125 0  0.75 0.3125 0  0.78125 0.3125 0  0.8125 0.3125 0  0.84375 0.3125 0  0.875 0.3125 0  0.90625 0.3125 0  0.9375 0.3125 0  0.96875 0.3125 0  1 0.3125 0  0 0.34375 0  0.03125 0.34375 0  0.0625 0.34375 0  0.09375 0.34375 0  0.125 0.34375 0  0.15625 0.34375 0  0.1875 0.34375 0  0.21875 0.34375 0  0.25 0.34375 0  0.28125 0.34375 0  0.3125 0.34375 0  0.34375 0.34375 0  0.375 0.34375 0  0.40625 0.34375 0  0.4375 0.34375 0  0.46875 0.34375 0  0.5 0.34375 0  0.53125 0.34375 0  0.5625 0.34375 0  0.59375 0.34375 0  0.625 0.34375 0  0.65625 0.34375 0  0.6875 0.34375 0  0.71875 0.34375 0  0.75 0.34375 0  0.78125 0.34375 0  0.8125 0.34375 0  0.84375 0.34375 0  0.875 0.34375 0  0.90625 0.34375 0  0.9375 0.34375 0  0.96875 0.34375 0  1 0.34375 0  0 0.375 0  0.03125 0.375 0  0.0625 0.375 0  0.09375 0.375 0  0.125 0.375 0  0.15625 0.375 0  0.1875 0.375 0  0.21875 0.375 0  0.25 0.375 0  0.28125 0.375 0  0.3125 0.375 0  0.34375 0.375 0  0.375 0.375 0  0.40625 0.375 0  0.4375 0.375 0  0.46875 0.375 0  0.5 0.375 0  0.53125 0.375 0  0.5625 0.375 0  0.59375 0.375 0  0.625 0.375 0  0.65625 0.375 0  0.6875 0.375 0  0.71875 0.375 0  0.75 0.375 0  0.78125 0.375 0  0.8125 0.375 0  0.84375 0.375 0  0.875 0.375 0  0.90625 0.375 0  0.9375 0.375 0  0.96875 0.375 0  1 0.375 0  0 0.40625 0  0.03125 0.40625 0  0.0625 0.40625 0  0.09375 0.40625 0  0.125 0.40625 0  0.15625 0.40625 0  0.1875 0.40625 0  0.21875 0.40625 0  0.25 0.40625 0  0.28125 0.40625 0  0.3125 0.40625 0  0.34375 0.40625 0  0.375 0.40625 0  0.40625 0.40625 0  0.4375 0.40625 0  0.46875 0.40625 0  0.5 0.40625 0  0.53125 0.40625 0  0.5625 0.40625 0  0.59375 0.40625 0  0.625 0.40625 0  0.65625 0.40625 0  0.6875 0.40625 0  0.71875 0.40625 0  0.75 0.40625 0  0.78125 0.40625 0  0.8125 0.40625 0  0.84375 0.40625 0  0.875 0.40625 0  0.90625 0.40625 0  0.9375 0.40625 0  0.96875 0.40625 0  1 0.40625 0  0 0.4375 0  0.03125 0.4375 0  0.0625 0.4375 0  0.09375 0.4375 0  0.125 0.4375 0  0.15625 0.4375 0  0.1875 0.4375 0  0.21875 0.4375 0  0.25 0.4375 0  0.28125 0.4375 0  0.3125 0.4375 0  0.34375 0.4375 0  0.375 0.4375 0  0.40625 0.4375 0  0.4375 0.4375 0  0.46875 0.4375 0  0.5 0.4375 0  0.53125 0.4375 0  0.5625 0.4375 0  0.59375 0.4375 0  0.625 0.4375 0  0.65625 0.4375 0  0.6875 0.4375 0  0.71875 0.4375 0  0.75 0.4375 0  0.78125 0.4375 0  0.8125 0.4375 0  0.84375 0.4375 0  0.875 0.4375 0  0.90625 0.4375 0  0.9375 0.4375 0  0.96875 0.4375 0  1 0.4375 0  0 0.46875 0  0.03125 0.46875 0  0.0625 0.46875 0  0.09375 0.46875 0  0.125 0.46875 0  0.15625 0.46875 0  0.1875 0.46875 0  0.21875 0.46875 0  0.25 0.46875 0  0.28125 0.46875 0  0.3125 0.46875 0  0.34375 0.46875 0  0.375 0.46875 0  0.40625 0.46875 0  0.4375 0.46875 0  0.46875 0.46875 0  0.5 0.46875 0  0.53125 0.46875 0  0.5625 0.46875 0  0.59375 0.46875 0  0.625 0.46875 0  0.65625 0.46875 0  0.6875 0.46875 0  0.71875 0.46875 0  0.75 0.46875 0  0.78125 0.46875 0  0.8125 0.46875 0  0.84375 0.46875 0  0.875 0.46875 0  0.90625 0.46875 0  0.9375 0.46875 0  0.96875 0.46875 0  1 0.46875 0  0 0.5 0  0.03125 0.5 0  0.0625 0.5 0  0.09375 0.5 0  0.125 0.5 0  0.15625 0.5 0  0.1875 0.5 0  0.21875 0.5 0  0.25 0.5 0  0.28125 0.5 0  0.3125 0.5 0  0.34375 0.5 0  0.375 0.5 0  0.40625 0.5 0  0.4375 0.5 0  0.46875 0.5 0  0.5 0.5 0  0.53125 0.5 0  0.5625 0.5 0  0.59375 0.5 0  0.625 0.5 0  0.65625 0.5 0  0.6875 0.5 0  0.71875 0.5 0  0.75 0.5 0  0.78125 0.5 0  0.8125 0.5 0  0.84375 0.5 0  0.875 0.5 0  0.90625 0.5 0  0.9375 0.5 0  0.96875 0.5 0  1 0.5 0  0 0.53125 0  0.03125 0.53125 0  0.0625 0.53125 0  0.09375 0.53125 0  0.125 0.53125 0  0.15625 0.53125 0  0.1875 0.53125 0  0.21875 0.53125 0  0.25 0.53125 0  0.28125 0.53125 0  0.3125 0.53125 0  0.34375 0.53125 0  0.375 0.53125 0  0.40625 0.53125 0  0.4375 0.53125 0  0.46875 0.53125 0  0.5 0.53125 0  0.53125 0.53125 0  0.5625 0.53125 0  0.59375 0.53125 0  0.625 0.53125 0  0.65625 0.53125 0  0.6875 0.53125 0  0.71875 0.53125 0  0.75 0.53125 0  0.78125 0.531
[...]
<PointData  Vectors="f_916"> 
<DataArray  type="Float64"  Name="f_916"  NumberOfComponents="3" format="ascii">0.0000000000000000e+00 -0.0000000000000000e+00 0.0000000000000000e+00  3.2241981484346961e-02 -0.0000000000000000e+00 0.0000000000000000e+00  6.6530903682366208e-02 -0.0000000000000000e+00 0.0000000000000000e+00  1.0296423190385867e-01 -0.0000000000000000e+00 0.0000000000000000e+00  1.4164355663335329e-01 -0.0000000000000000e+00 0.0000000000000000e+00  1.8267475721398505e-01 -0.0000000000000000e+00 0.0000000000000000e+00  2.2616817176643389e-01 -0.0000000000000000e+00 0.0000000000000000e+00  2.7223877357383330e-01 -0.0000000000000000e+00 0.0000000000000000e+00  3.2100635417193535e-01 -0.0000000000000000e+00 0.0000000000000000e+00  3.7259571339249342e-01 -0.0000000000000000e+00 0.0000000000000000e+00  4.2713685661681133e-01 -0.0000000000000000e+00 0.0000000000000000e+00  4.8476519950571306e-01 -0.0000000000000000e+00 0.0000000000000000e+00  5.4562178048182552e-01 -0.0000000000000000e+00 0.0000000000000000e+00  6.0985348125004990e-01 -0.0000000000000000e+00 0.0000000000000000e+00  6.7761325565243324e-01 -0.0000000000000000e+00 0.0000000000000000e+00  7.4906036716435931e-01 -0.0000000000000000e+00 0.0000000000000000e+00  8.2436063535006410e-01 -0.0000000000000000e+00 0.0000000000000000e+00  9.0368669160696291e-01 -0.0000000000000000e+00 0.0000000000000000e+00  9.8721824454016793e-01 -0.0000000000000000e+00 0.0000000000000000e+00  1.0751423553208861e+00 -0.0000000000000000e+00 0.0000000000000000e+00  1.1676537233951390e+00 -0.0000000000000000e+00 0.0000000000000000e+00  1.2649549829224511e+00 -0.0000000000000000e+00 0.0000000000000000e+00  1.3672570103378257e+00 -0.0000000000000000e+00 0.0000000000000000e+00  1.4747792434444833e+00 -0.0000000000000000e+00 0.0000000000000000e+00  1.5877500124595061e+00 -0.0000000000000000e+00 0.0000000000000000e+00  1.7064068834497015e+00 -0.0000000000000000e+00 0.0000000000000000e+00  1.8309970146107319e+00 -0.0000000000000000e+00 0.0000000000000000e+00  1.9617775258588208e+00 -0.0000000000000000e+00 0.0000000000000000e+00  2.0990158822212108e+00 -0.0000000000000000e+00 0.0000000000000000e+00  2.2429902915289914e+00 -0.0000000000000000e+00 0.0000000000000000e+00  2.3939901169339937e+00 -0.0000000000000000e+00 0.0000000000000000e+00  2.5523163047901427e+00 -0.0000000000000000e+00 0.0000000000000000e+00  2.7182818284590451e+00 -0.0000000000000000e+00 0.0000000000000000e+00  0.0000000000000000e+00 -3.2241981484346961e-02 0.0000000000000000e+00  3.4304997211220073e-02 -3.4304997211220073e-02 0.0000000000000000e+00  7.0787909433902826e-02 -3.6466498799283278e-02 0.0000000000000000e+00  1.0955243833360920e-01 -3.8730660016932539e-02 0.0000000000000000e+00  1.5070667470153767e-01 -4.1101820373146636e-02 0.0000000000000000e+00  1.9436327261177910e-01 -4.3584491434156526e-02 0.0000000000000000e+00  2.4063963021258483e-01 -4.6183363374132438e-02 0.0000000000000000e+00  2.8965807739733229e-01 -4.8903311768380774e-02 0.0000000000000000e+00  3.4154607060978565e-01 -5.1749404637846309e-02 0.0000000000000000e+00  3.9643639504747807e-01 -5.4726909754028955e-02 0.0000000000000000e+00  4.5446737453660602e-01 -5.7841302213749855e-02 0.0000000000000000e+00  5.1578308936172568e-01 -6.1098272293537745e-02 0.0000000000000000e+00  5.8053360234379747e-01 -6.4503733593755275e-02 0.0000000000000000e+00  6.4887519347074518e-01 -6.8063831482945300e-02 0.0000000000000000e+00  7.2097060339569585e-01 -7.1784951853251094e-02 0.0000000000000000e+00  7.9698928612945652e-01 -7.5673730198150407e-02 0.0000000000000000e+00  8.7710767126558165e-01 -7.9737061024143782e-02 0.0000000000000000e+00  9.6150943608860096e-01 -8.3982107608451789e-02 0.0000000000000000e+00  1.0503857879286289e+00 -8.8416312115204454e-02 0.0000000000000000e+00  1.1439357571386752e+00 -9.3047406083050135e-02 0.0000000000000000e+00  1.2423665010845502e+00 -9.7883421297570633e-02 0.0000000000000000e+00  1.3458936195512972e+00 -1.0293270106236471e-01 0.0000000000000000e+00  1.4547414819846396e+00 -1.0820391188315502e-01 0.0000000000000000e+00  1.5691435670009961e+00 -1.1370605557978233e-01 0.0000000000000000e+00  1.6893428146152045e+00 -1.1944848184147910e-01 0.0000000000000000e+00  1.8155919916512668e+00 -1.2544090124136026e-01 0.0000000000000000e+00  1.9481540708181346e+00 -1.3169339872663383e-01 0.0000000000000000e+00  2.0873026239498871e+00 -1.3821644760161991e-01 0.0000000000000000e+00  2.2333222299275737e+00 -1.4502092402127101e-01 0.0000000000000000e+00  2.3865088978185751e+00 -1.5211812201351421e-01 0.0000000000000000e+00  2.5471705057885501e+00 -1.5951976904938392e-01 0.0000000000000000e+00  2.7156272563609405e+00 -1.6723804218058580e-01 0.0000000000000000e+00  2.8922121486196399e+00 -1.7528558476482667e-01 0.0000000000000000e+00  0.0000000000000000e+00 -6.6530903682366208e-02 0.0000000000000000e+00  3.6466498799283278e-02 -7.0787909433902826e-02 0.0000000000000000e+00  7.5248139461468938e-02 -7.5248139461468938e-02 0.0000000000000000e+00  1.1645515772391547e-01 -7.9920206281118455e-02 0.0000000000000000e+00  1.6020245500122399e-01 -8.4813064412412709e-02 0.0000000000000000e+00  2.0660978351585566e-01 -8.9936023412784227e-02 0.0000000000000000e+00  2.5580193848076099e-01 -9.5298761394793305e-02 0.0000000000000000e+00  3.0790895759518555e-01 -1.0091133904380030e-01 0.0000000000000000e+00  3.6306632812428963e-01 -1.0678421415420283e-01 0.0000000000000000e+00  4.2141520184303466e-01 -1.1292825670303543e-01 0.0000000000000000e+00  4.8310261813494959e-01 -1.1935476448039932e-01 0.0000000000000000e+00  5.4828173554691984e-01 -1.2607547929688531e-01 0.0000000000000000e+00  6.1711207211203745e-01 -1.3310260378887082e-01 0.0000000000000000e+00  6.8975975476384754e-01 -1.4044881884331739e-01 0.0000000000000000e+00  7.6639777817701260e-01 -1.4812730166446464e-01 0.0000000000000000e+00  8.4720627338152776e-01 -1.5615174450561492e-01 0.0000000000000000e+00  9.3237278651015854e-01 -1.6453637409002797e-01 0.0000000000000000e+00  1.0220925680517636e+00 -1.7329597174580075e-01 0.0000000000000000e+00  1.1165688729966017e+00 -1.8244589428049046e-01 0.0000000000000000e+00  1.2160132722736658e+00 -1.9200209562215775e-01 0.0000000000000000e+00  1.3206459758944908e+00 -2.0198114925445154e-01 0.0000000000000000e+00  1.4306961682328276e+00 -2.1240027147434135e-01 0.0000000000000000e+00  1.5464023558850397e+00 -2.2327734550211803e-01 0.0000000000000000e+00  1.6680127285720832e+00 -2.3463094647433397e-01 0.0000000000000000e+00  1.7957855335605255e+00 -2.4648036735144468e-01 0.0000000000000000e+00  1.9299894640972197e+00 -2.5884564577303887e-01 0.0000000000000000e+00  2.0709040623700341e+00 -2.7174759189471032e-01 0.0000000000000000e+00  2.2188201375254462e+00 -2.8520781724183297e-01 0.0000000000000000e+00  2.3740401992928772e+00 -2.9924876461674921e-01 0.0000000000000000e+00  2.5368789077853640e+00 -3.1389373909717483e-01 0.0000000000000000e+00  2.7076635400666267e+00 -3.2916694016496251e-01 0.0000000000000000e+00  2.8867344740957392e+00 -3.4509349500575248e-01 0.0000000000000000e+00  3.0744456906824964e+00 -3.6169949302147014e-01 0.0000000000000000e+00  0.0000000000000000e+00 -1.0296423190385867e-01 0.0000000000000000e+00  3.8730660016932539e-02 -1.0955243833360920e-01 0.0000000000000000e+00  7.9920206281118455e-02 -1.1645515772391547e-01 0.0000000000000000e+00  1.2368571893476854e-01 -1.2368571893476854e-01 0.0000000000000000e+00  1.7014923348364583e-01 -1.3125798011595535e-01 0.0000000000000000e+00  2.1943793742222145e-01 -1.3918634887923759e-01 0.0000000000000000e+00  2.7168437434869308e-01 -1.4748580321786198e-01 0.0000000000000000e+00  3.2702665584724616e-01 -1.5617191320052165e-01 0.0000000000000000e+00  3.8560868142499904e-01 -1.6526086346785673e-01 0.0000000000000000e+00  4.4758036680149743e-01 -1.7476947656058472e-01 0.0000000000000000e+00  5.1309788085941699e-01 -1.8471523710939008e-01 0.0000000000000000e+00  5.8232389157630982e-01 -1.9511631691777653e-01 0.0000000000000000e+00  6.5542782126881438e-01 -2.0599160097019881e-01 0.0000000000000000e+00  7.3258611149273278e-01 -2.1736071439894267e-01 0.0000000000000000e+00  8.1398249795480115e-01 -2.2924405044441337e-01 0.0000000000000000e+00  8.9980829580484056e-01 -2.4166279944472857e-01 0.0000000000000000e+00  9.9026269569028991e-01 -2.5463897889178883e-01 0.0000000000000000e+00  1.0855530709689183e+00 -2.6819546459232096e-01 0.0000000000000000e+00  1.1858952964897980e+00 -2.8235602297376144e-01 0.0000000000000000e+00  1.2915140793674063e+00 -2.9714534457626041e-01 0.0000000000000000e+00  1.4026433021890465e+00 -3.1258907877355896e-01 0.0000000000000000e+00  1.5195263791116367e+00 -3.2871386976700712e-01 0.0000000000000000e+00  1.6424166253203376e+00 -3.4554739389856454e-01 0.0000000000000000e+00  1.7715776403385086e+00 -3.6311839833025333e-01 0.0000000000000000e+00  1.9072837056960759e+00 -3.8145674113921518e-01 0.0000000000000000e+00  2.0498201974816510e+00 -4.0059343287927129e-01 0.0000000000000000e+00  2.1994840143226102e+00 -4.2056067966168587e-01 0.0000000000000000e+00  2.3565840213569000e+00 -4.4139192780970515e-01 0.0000000000000000e+00  2.5214415107805848e+00 -4.6312191014337267e-01 0.0000000000000000e+00  2.6943906795761041e+00 -4.8578669395313012e-01 0.0000000000000000e+00  2.8757791250479379e+00 -5.0942373072277747e-01 0.0000000000000000e+00  3.0659683588148052e+00 -5.3407190766451451e-01 0.0000000000000000e+00  3.2653343399308579e+00 -5.5977160113100422e-01 0.0000000000000000e+00  0.0000000000000000e+00 -1.4164355663335329e-01 0.0000000000000000e+00  4.1101820373146636e-02 -1.5070667470153767e-01 0.0000000000000000e+00  8.4813064412412709e-02 -1.6020245500122399e-01 0.0000000000000000e+00  1.3125798011595535e-01 -1.7014923348364583e-01 0.0000000000000000e+00  1.8056607422171364e-01 -1.8056607422171364e-01 0.0000000000000000e+00  2.3287232087030840e-01 -1.9147279716003135e-01 0.0000000000000000e+00  2.8831737821634768e-01 -2.0289000689298539e-01 0.0000000000000000e+00  3.4704781328249917e-01 -2.1483912250821374e-01 0.0000000000000000e+00  4.0921633536136909e-01 -2.2734240853409393e-01 0.0000000000000000e+00  4.7498203828128888e-01 -2.4042300703126968e-01 0.0000000000000000e+00  5.4451065186356240e-01 -2.5410497086966244e-01 0.0000000000000000e+00  6.1797480291059648e-01 -2.6841329823389543e-01 0.0000000000000000e+00  6.9555428607661662e-01 -2.8337396840158452e-01 0.0000000000000000e+00  7.7743634498540193e-01 -2.9901397884053921e-01 0.0000000000000000e+00  8.6381596397264693e-01 -3.1536138367255362e-01 0.0000000000000000e+00  9.5489617084420808e-01 -3.3244533355316874e-01 0.0000000000000000e+00  1.0508883510556251e+00 -3.5029611701854169e-01 0.0000000000000000e+00  1.1520125737329465e+00 -3.6894520335238157e-01 0.0000000000000000e+00  1.2584979299700441e+00 -3.8842528702779139e-01 0.0000000000000000e+00  1.3705828838532970e+00 -4.0877033378080785e-01 0.0000000000000000e+00  1.4885156366807870e+00 -4.3001562837444957e-01 0.0000000000000000e+00  1.6125545048599679e+00 -4.5219782411417087e-01 0.0000000000000000e+00  1.7429683119852160e+00 -4.7535499417778615e-01 0.0000000000000000e+00  1.8800367956147033e+00 -4.9952668482516271e-01 0.0000000000000000e+00  2.0240510292847391e+00 -5.2475397055530271e-01 0.0000000000000000e+00  2.1753138603190649e+00 -5.5107951128082977e-01 0.0000000000000000e+00  2.3341403640106444e+00 -5.7854761159238188e-01 0.0000000000000000e+00  2.5008583147742125e+00 -6.0720428218797751e-01 0.0000000000000000e+00  2.6758086748893728e+00 -6.3709730354508864e-01 0.0000000000000000e+00  2.8593461014762349e+00 -6.6827629191590165e-01 0.0000000000000000e+00  3.0518394723686542e+00 -7.0079276772909838e-01 0.0000000000000000e+00  3.2536724315739622e+00 -7.3470022648444311e-01 0.0000000000000000e+00  3.4652439550327849e+00 -7.7005421222950776e-01 0.0000000000000000e+00  0.0000000000000000e+00 -1.8267475721398505e-01 0.0000000000000000e+00  4.3584491434156526e-02 -1.9436327261177910e-01 0.0000000000000000e+00  8.9936023412784227e-02 -2.0660978351585566e-01 0.0000000000000000e+00  1.3918634887923759e-01 -2.1943793742222145e-01 0.0000000000000000e+00  1.9147279716003135e-01 -2.3287232087030840e-01 0.0000000000000000e+00  2.4693849523159406e-01 -2.4693849523159406e-01 0.0000000000000000e+00  3.0573259741553493e-01 -2.6166303382410649e-01 0.0000000000000000e+00  3.6801052381456456e-01 -2.7707356040092701e-01 0.0000000000000000e+00  4.3393420781253550e-01 -2.9319878906252400e-01 0.0000000000000000e+00  5.0367235297379520e-01 -3.1006856564452862e-01 0.0000000000000000e+00  5.7740069968919361e-01 -3.2771391063440719e-01 0.0000000000000000e+00  6.5530230192866423e-01 -3.4616706367239025e-01 0.0000000000000000e+00  7.3756781447332997e-01 -3.6546152969399232e-01 0.0000000000000000e+00  8.2439579101357774e-01 -3.8563212677350311e-01 0.0000000000000000e+00  9.1599299351351815e-01 -4.0671503572994050e-01 0.0000000000000000e+00  1.0125747132567220e+00 -4.2874785155915257e-01 0.0000000000000000e+00  1.1143651040031117e+00 -4.5176963675801829e-01 0.0000000000000000e+00  1.2215975277024040e+00 -4.7582097660904443e-01 0.0000000000000000e+00  1.3345149132255787e+00 -5.0094403649608810e-01 0.0000000000000000e+00  1.4533701285924905e+00 -5.2718262132444538e-01 0.0000000000000000e+00  1.5784263671909740e+00 -5.5458223712115295e-01 0.0000000000000000e+00  1.7099575485006475e+00 -5.8319015489404324e-01 0.0000000000000000e+00  1.8482487338531020e+00 -6.1305547683088157e-01 0.0000000000000000e+00  1.9935965577792976e+00 -6.4422920492280467e-01 0.0000000000000000e+00  2.1463096755148108e+00 -6.7676431209926469e-01 0.0000000000000000e+00  2.3067092272541090e+00 -7.1071581596477951e-01 0.0000000000000000e+00  2.4751293197662476e+00 -7.4614085523098939e-01 0.0000000000000000e+00  2.6519175260064318e+00 -7.8309876894083819e-01 0.0000000000000000e+00  2.8374354033806317e+00 -8.2165117858512504e-01 0.0000000000000000e+00  3.0320590313440428e+00 -8.6186207321522179e-01 0.0000000000000000e+00  3.2361795690386179e+00 -9.0379789765943386e-01 0.0000000000000000e+00  3.4502038337001775e+00 -9.4752764395427713e-01 0.0000000000000000e+00  3.6745549005917821e+00 -9.9312294610588703e-01 0.0000000000000000e+00  0.0000000000000000e+00 -2.2616817176643389e-01 0.0000000000000000e+00  4.6183363374132438e-02 -2.4063963021258483e-01 0.0000000000000000e+00  9.5298761394793305e-02 -2.5580193848076099e-01 0.0000000000000000e+00  1.4748580321786198e-01 -2.7168437434869308e-01 0.0000000000000000e+00  2.0289000689298539e-01 -2.8831737821634768e-01 0.0000000000000000e+00  2.6166303382410649e-01 -3.0573259741553493e-01 0.0000000000000000e+00  3.2396293216108391e-01 -3.2396293216108391e-01 0.0000000000000000e+00  3.8995438945315686e-01 -3.4304258320315306e-01 0.0000000000000000e+00  4.5980899490700827e-01 -3.6300710124237495e-01 0.0000000000000000e+00  5.3370551160460611e-01 -3.8389343817173416e-01 0.0000000000000000e+00  6.1183015904887572e-01 -4.0574000021135970e-01 0.0000000000000000e+00  6.9437690641858540e-01 -4.2858670300477286e-01 0.0000000000000000e+00  7.8154777692763289e-01 -4.5247502874757695e-01 0.0000000000000000e+00  8.7355316369822000e-01 -4.7744808542210404e-01 0.0000000000000000e+00  9.7061215757220931e-01 -5.0355066821415373e-01 0.0000000000000000e+00  1.0729528873002934e+00 -5.3082932319067155e-01 0.0000000000000000e+00  1.1808128725644857e+00 -5.5933241332001959e-01 0.0000000000000000e+00  1.2944393903058917e+00 -5.8911018691939954e-01 0.0000000000000000e+00  1.4140898548467475e+00 -6.2021484861699450e-01 0.0000000000000000e+00  1.5400322123133556e+00 -6.5270063291951086e-01 0.0000000000000000e+00  1.6725453498848033e+00 -6.8662388047902445e-01 0.0000000000000000e+00  1.8119195204112721e+00 -7.2204311715637159e-01 0.0000000000000000e+00  1.9584567829653261e+00 -7.5901913598177706e-01 0.0000000000000000e+00  2.1124714599098477e+00 -7.9761508211699050e-01 0.0000000000000000e+00  2.2742906110872942e+00 -8.3789654092689791e-01 0.0000000000000000e+00  2.4442545257566892e+00 -8.7993162927240809e-01 0.0000000000000000e+00  2.6227172329272816e+00 -9.2379109014037863e-01 0.0000000000000000e+00  2.8100470307611274e+00 -9.6954839073044741e-01 0.0000000000000000e+00  3.0066270357409706e+00 -1.0172798241228849e+00 0.0000000000000000e+00  3.2128557523248262e+00 -1.0670646146559768e+00 0.0000000000000000e+00  3.4291476638345268e+00 -1.1189850271460036e+00 0.0000000000000000e+00  3.6559338453522967e+00 -1.1731264800875789e+00 0.0000000000000000e+00  3.8936625994271745e+00 -1.2295776629770026e+00 0.0000000000000000e+00  0.0000000000000000e+00 -2.7223877357383330e-01 0.0000000000000000e+00  4.8903311768380774e-02 -2.8965807739733229e-01 0.0000000000000000e+00  1.0091133904380030e-01 -3.0790895759518555e-01 0.0000000000000000e+00  1.5617191320052165e-01 -3.2702665584724616e-01 0.0000000000000000e+00  2.1483912250821374e-01 -3.4704781328249917e-01 0.0000000000000000e+00  2.7707356040092701e-01 -3.6801052381456456e-01 0.0000000000000000e+00  3.4304258320315306e-01 -3.8995438945315686e-01 0.0000000000000000e+00  4.1292057766320150e-01 -4.1292057766320150e-01 0.0000000000000000e+00  4.8688923865683353e-01 -4.3695188084587622e-01 0.0000000000000000e+00  5.6513785743725098e-01 -4.6209277801849291e-01 0.0000000000000000e+00  6.4786362082116822e-01 -4.8838949877288068e-01 0.0000000000000000e+00  7.3527192171481248e-01 -5.1589008959477523e-01 0.0000000000000000e+00  8.2757668139831375e-01 -5.4464448262965948e-01 0.0000000000000000e+00  9.2500068400208657e-01 -5.7470456698354488e-01 0.0000000000000000e+00  1.0277759236244917e+00 -6.0612426265034125e-01 0.0000000000000000e+00  1.1361439645562899e+00 -6.3895959716071682e-01 0.0000000000000000e+00  1.2503563150942358e+00 -6.7326878505074239e-01 0.0000000000000000e+00  1.3706748154435582e+00 -7.0911231025209709e-01 0.0000000000000000e+00  1.4973720402271131e+00 -7.4655301150924447e-01 0.0000000000000000e+00  1.6307317161376831e+00 -7.8565617093272988e-01 0.0000000000000000e+00  1.7710491552892134e+00 -8.2648960580163289e-01 0.0000000000000000e+00  1.9186317048428254e+00 -8.6912376373222011e-01 0.0000000000000000e+00  2.0737992135041754e+00 -9.1363182133400733e-01 0.0000000000000000e+00  2.2368845155102006e+00 -9.6008978647873711e-01 0.0000000000000000e+00  2.4082339327455378e+00 -1.0085766043122337e+00 0.0000000000000000e+00  2.5882077956519227e+00 -1.0591742671437099e+00 0.0000000000000000e+00  2.7771809836177228e+00 -1.1119679283518691e+00 0.0000000000000000e+00  2.9755434855594380e+00 -1.1670460204520872e+00 0.0000000000000000e+00  3.1837009814325863e+00 -1.2245003774740717e+00 0.0000000000000000e+00  3.4020754454358331e+00 -1.2844263618046867e+00 0.0000000000000000e+00  3.6311057716996493e+00 -1.3469229956561093e+00 0.0000000000000000e+00  3.8712484232791562e+00 -1.4120930973251513e+00 0.0000000000000000e+00  4.1229781053001968e+00 -1.4800434224154553e+00 0.0000000000000000e+00  0.0000000000000000e+00 -3.2100635417193535e-01 0.0000000000000000e+00  5.1749404637846309e-02 -3.4154607060978565e-01 0.0000000000000000e+00  1.0678421415420283e-01 -3.6306632812428963e-01 0.0000000000000000e+00  1.6526086346785673e-01 -3.8560868142499904e-01 0.0000000000000000e+00  2.2734240853409393e-01 -4.0921633536136909e-01 0.0000000000000000e+00  2.9319878906252400e-01 -4.3393420781253550e-01 0.0000000000000000e+00  3.6300710124237495e-01 -4.5980899490700827e-01 0.0000000000000000e+00  4.3695188084587622e-01 -4.8688923865683353e-01 0.0000000000000000e+00  5.1522539709379012e-01 -5.1522539709379012e-01 0.0000000000000000e+00  5.9802795768107841e-01 -5.4486991699831588e-01 0.0000000000000000e+00  6.8556822537511664e-01 -5.7587730931509795e-01 0.0000000000000000e+00  7.7806354661379917e-01 -6.0830422735260670e-01 0.0000000000000000e+00  8.7574029254635422e-01 -6.4220954786732642e-01 0.0000000000000000e+00  9.7883421297570639e-01 -6.7765445513702738e-01 0.0000000000000000e+00  1.0875908036778159e+00 -7.1470252813113611e-01 0.0000000000000000e+00  1.2022656875906115e+00 -7.5341983089011644e-01 0.0000000000000000e+00  1.32312501