<?xml version="1.0"?>
<VTKFile type="UnstructuredGrid"  version="0.1"  >
<UnstructuredGrid>
<Piece  NumberOfPoints="81" NumberOfCells="128">
<Points>
<DataArray  type="Float64"  NumberOfComponents="3"  format="ascii">0 0 0  0.125 0 0  0.25 0 0  0.375 0 0  0.5 0 0  0.625 0 0  0.75 0 0  0.875 0 0  1 0 0  0 0.125 0  0.125 0.125 0  0.25 0.125 0  0.375 0.125 0  0.5 0.125 0  0.625 0.125 0  0.75 0.125 0  0.875 0.125 0  1 0.125 0  0 0.25 0  0.125 0.25 0  0.25 0.25 0  0.375 0.25 0  0.5 0.25 0  0.625 0.25 0  0.75 0.25 0  0.875 0.25 0  1 0.25 0  0 0.375 0  0.125 0.375 0  0.25 0.375 0  0.375 0.375 0  0.5 0.375 0  0.625 0.375 0  0.75 0.375 0  0.875 0.375 0  1 0.375 0  0 0.5 0  0.125 0.5 0  0.25 0.5 0  0.375 0.5 0  0.5 0.5 0  0.625 0.5 0  0.75 0.5 0  0.875 0.5 0  1 0.5 0  0 0.625 0  0.125 0.625 0  0.25 0.625 0  0.375 0.625 0  0.5 0.625 0  0.625 0.625 0  0.75 0.625 0  0.875 0.625 0  1 0.625 0  0 0.75 0  0.125 0.75 0  0.25 0.75 0  0.375 0.75 0  0.5 0.75 0  0.625 0.75 0  0.75 0.75 0  0.875 0.75 0  1 0.75 0  0 0.875 0  0.125 0.875 0  0.25 0.875 0  0.375 0.875 0  0.5 0.875 0  0.625 0.875 0  0.75 0.875 0  0.875 0.875 0  1 0.875 0  0 1 0  0.125 1 0  0.25 1 0  0.375 1 0  0.5 1 0  0.625 1 0  0.75 1 0  0.875 1 0  1 1 0  </DataArray>
</Points>
<Cells>
<DataArray  type="UInt32"  Name="connectivity"  format="ascii">0 1 10  0 9 10  1 2 11  1 10 11  2 3 12  2 11 12  3 4 13  3 12 13  4 5 14  4 13 14  5 6 15  5 14 15  6 7 16  6 15 16  7 8 17  7 16 17  9 10 19  9 18 19  10 11 20  10 19 20  11 12 21  11 20 21  12 13 22  12 21 22  13 14 23  13 22 23  14 15 24  14 23 24  15 16 25  15 24 25  16 17 26  16 25 26  18 19 28  18 27 28  19 20 29  19 28 29  20 21 30  20 29 30  21 22 31  21 30 31  22 23 32  22 31 32  23 24 33  23 32 33  24 25 34  24 33 34  25 26 35  25 34 35  27 28 37  27 36 37  28 29 38  28 37 38  29 30 39  29 38 39  30 31 40  30 39 40  31 32 41  31 40 41  32 33 42  32 41 42  33 34 43  33 42 43  34 35 44  34 43 44  36 37 46  36 45 46  37 38 47  37 46 47  38 39 48  38 47 48  39 40 49  39 48 49  40 41 50  40 49 50  41 42 51  41 50 51  42 43 52  42 51 52  43 44 53  43 52 53  45 46 55  45 54 55  46 47 56  46 55 56  47 48 57  47 56 57  48 49 58  48 57 58  49 50 59  49 58 59  50 51 60  50 59 60  51 52 61  51 60 61  52 53 62  52 61 62  54 55 64  54 63 64  55 56 65  55 64 65  56 57 66  56 65 66  57 58 67  57 66 67  58 59 68  58 67 68  59 60 69  59 68 69  60 61 70  60 69 70  61 62 71  61 70 71  63 64 73  63 72 73  64 65 74  64 73 74  65 66 75  65 74 75  66 67 76  66 75 76  67 68 77  67 76 77  68 69 78  68 77 78  69 70 79  69 78 79  70 71 80  70 79 80  </DataArray>
<DataArray  type="UInt32"  Name="offsets"  format="ascii">3 6 9 12 15 18 21 24 27 30 33 36 39 42 45 48 51 54 57 60 63 66 69 72 75 78 81 84 87 90 93 96 99 102 105 108 111 114 117 120 123 126 129 132 135 138 141 144 147 150 153 156 159 162 165 168 171 174 177 180 183 186 189 192 195 198 201 204 207 210 213 216 219 222 225 228 231 234 237 240 243 246 249 252 255 258 261 264 267 270 273 276 279 282 285 288 291 294 297 300 303 306 309 312 315 318 321 324 327 330 333 336 339 342 345 348 351 354 357 360 363 366 369 372 375 378 381 384 </DataArray>
<DataArray  type="UInt8"  Name="types"  format="ascii">5 5 5 5 5 5 5 5 5 5 5 5 5 5 5 5 5 5 5 5 5 5 5 5 5 5 5 5 5 5 5 5 5 5 5 5 5 5 5 5 5 5 5 5 5 5 5 5 5 5 5 5 5 5 5 5 5 5 5 5 5 5 5 5 5 5 5 5 5 5 5 5 5 5 5 5 5 5 5 5 5 5 5 5 5 5 5 5 5 5 5 5 5 5 5 5 5 5 5 5 5 5 5 5 5 5 5 5 5 5 5 5 5 5 5 5 5 5 5 5 5 5 5 5 5 5 5 5 </DataArray>
</Cells>
<<<<<<< HEAD
<PointData  Vectors="f_1524"> 
<DataArray  type="Float64"  Name="f_1524"  NumberOfComponents="3" format="ascii">0.0000000000000000e+00 1.0000000000000000e+00 0.0000000000000000e+00  0.0000000000000000e+00 1.0157477085866857e+00 0.0000000000000000e+00  0.0000000000000000e+00 1.0317434074991028e+00 0.0000000000000000e+00  0.0000000000000000e+00 1.0479910020166328e+00 0.0000000000000000e+00  0.0000000000000000e+00 1.0644944589178593e+00 0.0000000000000000e+00  0.0000000000000000e+00 1.0812578074490395e+00 0.0000000000000000e+00  0.0000000000000000e+00 1.0982851403078258e+00 0.0000000000000000e+00  0.0000000000000000e+00 1.1155806146424807e+00 0.0000000000000000e+00  0.0000000000000000e+00 1.1331484530668263e+00 0.0000000000000000e+00  0.0000000000000000e+00 1.1509929446911764e+00 0.0000000000000000e+00  0.0000000000000000e+00 1.1691184461695043e+00 0.0000000000000000e+00  0.0000000000000000e+00 1.1875293827631006e+00 0.0000000000000000e+00  0.0000000000000000e+00 1.2062302494209807e+00 0.0000000000000000e+00  0.0000000000000000e+00 1.2252256118773075e+00 0.0000000000000000e+00  0.0000000000000000e+00 1.2445201077660952e+00 0.0000000000000000e+00  0.0000000000000000e+00 1.2641184477534664e+00 0.0000000000000000e+00  0.0000000000000000e+00 1.2840254166877414e+00 0.0000000000000000e+00  0.0000000000000000e+00 1.3042458747676378e+00 0.0000000000000000e+00  0.0000000000000000e+00 1.3247847587288655e+00 0.0000000000000000e+00  0.0000000000000000e+00 1.3456470830494105e+00 0.0000000000000000e+00  0.0000000000000000e+00 1.3668379411737963e+00 0.0000000000000000e+00  0.0000000000000000e+00 1.3883625067566268e+00 0.0000000000000000e+00  0.0000000000000000e+00 1.4102260349257107e+00 0.0000000000000000e+00  0.0000000000000000e+00 1.4324338635650782e+00 0.0000000000000000e+00  0.0000000000000000e+00 1.4549914146182013e+00 0.0000000000000000e+00  0.0000000000000000e+00 1.4779041954117385e+00 0.0000000000000000e+00  0.0000000000000000e+00 1.5011778000001228e+00 0.0000000000000000e+00  0.0000000000000000e+00 1.5248179105313266e+00 0.0000000000000000e+00  0.0000000000000000e+00 1.5488302986341331e+00 0.0000000000000000e+00  0.0000000000000000e+00 1.5732208268272529e+00 0.0000000000000000e+00  0.0000000000000000e+00 1.5979954499506333e+00 0.0000000000000000e+00  0.0000000000000000e+00 1.6231602166193055e+00 0.0000000000000000e+00  0.0000000000000000e+00 1.6487212707001282e+00 0.0000000000000000e+00  0.0000000000000000e+00 1.6746848528117839e+00 0.0000000000000000e+00  0.0000000000000000e+00 1.7010573018484008e+00 0.0000000000000000e+00  0.0000000000000000e+00 1.7278450565271632e+00 0.0000000000000000e+00  0.0000000000000000e+00 1.7550546569602985e+00 0.0000000000000000e+00  0.0000000000000000e+00 1.7826927462518150e+00 0.0000000000000000e+00  0.0000000000000000e+00 1.8107660721193872e+00 0.0000000000000000e+00  0.0000000000000000e+00 1.8392814885417808e+00 0.0000000000000000e+00  0.0000000000000000e+00 1.8682459574322223e+00 0.0000000000000000e+00  0.0000000000000000e+00 1.8976665503381187e+00 0.0000000000000000e+00  0.0000000000000000e+00 1.9275504501675447e+00 0.0000000000000000e+00  0.0000000000000000e+00 1.9579049529429180e+00 0.0000000000000000e+00  0.0000000000000000e+00 1.9887374695822919e+00 0.0000000000000000e+00  0.0000000000000000e+00 2.0200555277086965e+00 0.0000000000000000e+00  0.0000000000000000e+00 2.0518667734879767e+00 0.0000000000000000e+00  0.0000000000000000e+00 2.0841789734955687e+00 0.0000000000000000e+00  0.0000000000000000e+00 2.1170000166126748e+00 0.0000000000000000e+00  0.0000000000000000e+00 2.1503379159523002e+00 0.0000000000000000e+00  0.0000000000000000e+00 2.1842008108156179e+00 0.0000000000000000e+00  0.0000000000000000e+00 2.2185969686791451e+00 0.0000000000000000e+00  0.0000000000000000e+00 2.2535347872132085e+00 0.0000000000000000e+00  0.0000000000000000e+00 2.2890227963322012e+00 0.0000000000000000e+00  0.0000000000000000e+00 2.3250696602771210e+00 0.0000000000000000e+00  0.0000000000000000e+00 2.3616841797309096e+00 0.0000000000000000e+00  0.0000000000000000e+00 2.3988752939670981e+00 0.0000000000000000e+00  0.0000000000000000e+00 2.4366520830322917e+00 0.0000000000000000e+00  0.0000000000000000e+00 2.4750237699630251e+00 0.0000000000000000e+00  0.0000000000000000e+00 2.5139997230375233e+00 0.0000000000000000e+00  0.0000000000000000e+00 2.5535894580629268e+00 0.0000000000000000e+00  0.0000000000000000e+00 2.5938026406985348e+00 0.0000000000000000e+00  0.0000000000000000e+00 2.6346490888156313e+00 0.0000000000000000e+00  0.0000000000000000e+00 2.6761387748944769e+00 0.0000000000000000e+00  0.0000000000000000e+00 2.7182818284590451e+00 0.0000000000000000e+00  1.5624364224883372e-02 9.9987793217100662e-01 0.0000000000000000e+00  1.5870412159549072e-02 1.0156237184690935e+00 0.0000000000000000e+00  1.6120334785388248e-02 1.0316174648212710e+00 0.0000000000000000e+00  1.6374193119908356e-02 1.0478630760302119e+00 0.0000000000000000e+00  1.6632049141502785e-02 1.0643645183902837e+00 0.0000000000000000e+00  1.6893965804582606e-02 1.0811258206559020e+00 0.0000000000000000e+00  1.7160007054946608e-02 1.0981510750251327e+00 0.0000000000000000e+00  1.7430237845393378e-02 1.1154444381387842e+00 0.0000000000000000e+00  1.7704724151579258e-02 1.1330101320952333e+00 0.0000000000000000e+00  1.7983532988125984e-02 1.1508524454812312e+00 0.0000000000000000e+00  1.8266732424982040e-02 1.1689757344189442e+00 0.0000000000000000e+00  1.8554391604041622e-02 1.1873844236294808e+00 0.0000000000000000e+00  1.8846580756025317e-02 1.2060830075131677e+00 0.0000000000000000e+00  1.9143371217626642e-02 1.2250760512468386e+00 0.0000000000000000e+00  1.9444835448928579e-02 1.2443681918984015e+00 0.0000000000000000e+00  1.9751047051094362e-02 1.2639641395589587e+00 0.0000000000000000e+00  2.0062080784336911e-02 1.2838686784927540e+00 0.0000000000000000e+00  2.0378012586171199e-02 1.3040866683052312e+00 0.0000000000000000e+00  2.0698919589954037e-02 1.3246230451294840e+00 0.0000000000000000e+00  2.1024880143715875e-02 1.3454828228313913e+00 0.0000000000000000e+00  2.1355973829289106e-02 1.3666710942337315e+00 0.0000000000000000e+00  2.1692281481737637e-02 1.3881930323595713e+00 0.0000000000000000e+00  2.2033885209092403e-02 1.4100538916952374e+00 0.0000000000000000e+00  2.2380868412397677e-02 1.4322590094731762e+00 0.0000000000000000e+00  2.2733315806073073e-02 1.4548138069750147e+00 0.0000000000000000e+00  2.3091313438596210e-02 1.4777237908551444e+00 0.0000000000000000e+00  2.3454948713511045e-02 1.5009945544851437e+00 0.0000000000000000e+00  2.3824310410767074e-02 1.5246317793193778e+00 0.0000000000000000e+00  2.4199488708394581e-02 1.5486412362820996e+00 0.0000000000000000e+00  2.4580575204521171e-02 1.5730287871763950e+00 0.0000000000000000e+00  2.4967662939735083e-02 1.5978003861153165e+00 0.0000000000000000e+00  2.5360846419800624e-02 1.6229620809755545e+00 0.0000000000000000e+00  2.5760221638731338e-02 1.6485200148739987e+00 0.0000000000000000e+00  2.6165886102226511e-02 1.6744804276675531e+00 0.0000000000000000e+00  2.6577938851476787e-02 1.7008496574765708e+00 0.0000000000000000e+00  2.6996480487344598e-02 1.7276341422322761e+00 0.0000000000000000e+00  2.7421613194925448e-02 1.7548404212485587e+00 0.0000000000000000e+00  2.7853440768495948e-02 1.7824751368185177e+00 0.0000000000000000e+00  2.8292068636854739e-02 1.8105450358361488e+00 0.0000000000000000e+00  2.8737603889062435e-02 1.8390569714435667e+00 0.0000000000000000e+00  2.9190155300586999e-02 1.8680179047041729e+00 0.0000000000000000e+00  2.9649833359860742e-02 1.8974349063021656e+00 0.0000000000000000e+00  3.0116750295255623e-02 1.9273151582688175e+00 0.0000000000000000e+00  3.0591020102483289e-02 1.9576659557359368e+00 0.0000000000000000e+00  3.1072758572426647e-02 1.9884947087169422e+00 0.0000000000000000e+00  3.1562083319409656e-02 2.0198089439159830e+00 0.0000000000000000e+00  3.2059113809912415e-02 2.0516163065655535e+00 0.0000000000000000e+00  3.2563971391738313e-02 2.0839245622930402e+00 0.0000000000000000e+00  3.3076779323640580e-02 2.1167415990166680e+00 0.0000000000000000e+00  3.3597662805415388e-02 2.1500754288712978e+00 0.0000000000000000e+00  3.4126749008468793e-02 2.1839341901645559e+00 0.0000000000000000e+00  3.4664167106865131e-02 2.2183261493637674e+00 0.0000000000000000e+00  3.5210048308864220e-02 2.2532597031141726e+00 0.0000000000000000e+00  3.5764525888955345e-02 2.2887433802889365e+00 0.0000000000000000e+00  3.6327735220395584e-02 2.3247858440714326e+00 0.0000000000000000e+00  3.6899813808260656e-02 2.3613958940703217e+00 0.0000000000000000e+00  3.7480901323016111e-02 2.3985824684679375e+00 0.0000000000000000e+00  3.8071139634617286e-02 2.4363546462025036e+00 0.0000000000000000e+00  3.8670672847146259e-02 2.4747216491847186e+00 0.0000000000000000e+00  3.9279647333994187e-02 2.5136928445492424e+00 0.0000000000000000e+00  3.9898211773597710e-02 2.5532777469416406e+00 0.0000000000000000e+00  4.0526517185738208e-02 2.5934860208413473e+00 0.0000000000000000e+00  4.1164716968412528e-02 2.6343274829212002e+00 0.0000000000000000e+00  4.1812966935284482e-02 2.6758121044441405e+00 0.0000000000000000e+00  4.2471425353726062e-02 2.7179500136976529e+00 0.0000000000000000e+00  3.1244913985326080e-02 9.9951175848513640e-01 0.0000000000000000e+00  3.1736949785583057e-02 1.0152517783867261e+00 0.0000000000000000e+00  3.2236734022236702e-02 1.0312396675348749e+00 0.0000000000000000e+00  3.2744388715405380e-02 1.0474793293022446e+00 0.0000000000000000e+00  3.3260037806744740e-02 1.0639747285306733e+00 0.0000000000000000e+00  3.3783807189707513e-02 1.0807298924991726e+00 0.0000000000000000e+00  3.4315824740279804e-02 1.0977489119071697e+00 0.0000000000000000e+00  3.4856220348201510e-02 1.1150359418732352e+00 0.0000000000000000e+00  3.5405125948678298e-02 1.1325952029495356e+00 0.0000000000000000e+00  3.5962675554592982e-02 1.1504309821522631e+00 0.0000000000000000e+00  3.6529005289224245e-02 1.1685476340082916e+00 0.0000000000000000e+00  3.7104253419480447e-02 1.1869495816183153e+00 0.0000000000000000e+00  3.7688560389656962e-02 1.2056413177367291e+00 0.0000000000000000e+00  3.8282068855724986e-02 1.2246274058685149e+00 0.0000000000000000e+00  3.8884923720160391e-02 1.2439124813834013e+00 0.0000000000000000e+00  3.9497272167320976e-02 1.2635012526475682e+00 0.0000000000000000e+00  4.0119263699380958e-02 1.2833985021731744e+00 0.0000000000000000e+00  4.0751050172831212e-02 1.3036090877859867e+00 0.0000000000000000e+00  4.1392785835554363e-02 1.3241379438113954e+00 0.0000000000000000e+00  4.2044627364483771e-02 1.3449900822791108e+00 0.0000000000000000e+00  4.2706733903855452e-02 1.3661705941468245e+00 0.0000000000000000e+00  4.3379267104062501e-02 1.3876846505431482e+00 0.0000000000000000e+00  4.4062391161121282e-02 1.4095375040301186e+00 0.0000000000000000e+00  4.4756272856759184e-02 1.4317344898855893e+00 0.0000000000000000e+00  4.5461081599133611e-02 1.4542810274058144e+00 0.0000000000000000e+00  4.6176989464192318e-02 1.4771826212285473e+00 0.0000000000000000e+00  4.6904171237684873e-02 1.5004448626769711e+00 0.0000000000000000e+00  4.7642804457835940e-02 1.5240734311247977e+00 0.0000000000000000e+00  4.8393069458690395e-02 1.5480740953828613e+00 0.0000000000000000e+00  4.9155149414141099e-02 1.5724527151075478e+00 0.0000000000000000e+00  4.9929230382649986e-02 1.5972152422314043e+00 0.0000000000000000e+00  5.0715501352673449e-02 1.6223677224162769e+00 0.0000000000000000e+00  5.1514154288803023e-02 1.6479162965293337e+00 0.0000000000000000e+00  5.2325384178632653e-02 1.6738672021423280e+00 0.0000000000000000e+00  5.3149389080364144e-02 1.7002267750544766e+00 0.0000000000000000e+00  5.3986370171162097e-02 1.7270014508393148e+00 0.0000000000000000e+00  5.4836531796270495e-02 1.7541977664159158e+00 0.0000000000000000e+00  5.5700081518902690e-02 1.7818223616448485e+00 0.0000000000000000e+00  5.6577230170917016e-02 1.8098819809492721e+00 0.0000000000000000e+00  5.7468191904290457e-02 1.8383834749615546e+00 0.0000000000000000e+00  5.8373184243402959e-02 1.8673338021958279e+00 0.0000000000000000e+00  5.9292428138144983e-02 1.8967400307468756e+00 0.0000000000000000e+00  6.0226148017861497e-02 1.9266093400157789e+00 0.0000000000000000e+00  6.1174571846145380e-02 1.9569490224627342e+00 0.0000000000000000e+00  6.2137931176493751e-02 1.9877664853874770e+00 0.0000000000000000e+00  6.3116461208840707e-02 2.0190692527377392e+00 0.0000000000000000e+00  6.4110400846980387e-02 2.0508649669461909e+00 0.0000000000000000e+00  6.5119992756894243e-02 2.0831613907963025e+00 0.0000000000000000e+00  6.6145483425996909e-02 2.1159664093175974e+00 0.0000000000000000e+00  6.7187123223314965e-02 2.1492880317107468e+00 0.0000000000000000e+00  6.8245166460613460e-02 2.1831343933029790e+00 0.0000000000000000e+00  6.9319871454485066e-02 2.2175137575342854e+00 0.0000000000000000e+00  7.0411500589416809e-02 2.2524345179749017e+00 0.0000000000000000e+00  7.1520320381850203e-02 2.2879052003745626e+00 0.0000000000000000e+00  7.2646601545249975e-02 2.3239344647440241e+00 0.0000000000000000e+00  7.3790619056197645e-02 2.3605311074693685e+00 0.0000000000000000e+00  7.4952652221525792e-02 2.3977040634596025e+00 0.0000000000000000e+00  7.6132984746509577e-02 2.4354624083280765e+00 0.0000000000000000e+00  7.7331904804132198e-02 2.4738153606082549e+00 0.0000000000000000e+00  7.8549705105441001e-02 2.5127722840043809e+00 0.0000000000000000e+00  7.9786682971011588e-02 2.5523426896775825e+00 0.0000000000000000e+00  8.1043140403537370e-02 2.5925362385679831e+00 0.0000000000000000e+00  8.2319384161562134e-02 2.6333627437533740e+00 0.0000000000000000e+00  8.3615725834373850e-02 2.6748321728450373e+00 0.0000000000000000e+00  8.4932481918077771e-02 2.7169546504212922e+00 0.0000000000000000e+00  4.6857835748134243e-02 9.9890156833844290e-01 0.0000000000000000e+00  4.7595739290498644e-02 1.0146319791434200e+00 0.0000000000000000e+00  4.8345263122813294e-02 1.0306101078737029e+00 0.0000000000000000e+00  4.9106590238018000e-02 1.0468398555189908e+00 0.0000000000000000e+00  4.9879906510772086e-02 1.0633251845006320e+00 0.0000000000000000e+00  5.0665400742834855e-02 1.0800701196390317e+00 0.0000000000000000e+00  5.1463264709160669e-02 1.0970787491362939e+00 0.0000000000000000e+00  5.2273693204720001e-02 1.1143552255743381e+00 0.0000000000000000e+00  5.3096884092057754e-02 1.1319037669287333e+00 0.0000000000000000e+00  5.3933038349600504e-02 1.1497286575984988e+00 0.0000000000000000e+00  5.4782360120724558e-02 1.1678342494521212e+00 0.0000000000000000e+00  5.5645056763596608e-02 1.1862249628900443e+00 0.0000000000000000e+00  5.6521338901799313e-02 1.2049052879238888e+00 0.0000000000000000e+00  5.7411420475754149e-02 1.2238797852726708e+00 0.0000000000000000e+00  5.8315518794954016e-02 1.2431530874762804e+00 0.0000000000000000e+00  5.9233854591018348e-02 1.2627299000264955e+00 0.0000000000000000e+00  6.0166652071583816e-02 1.2826150025158076e+00 0.0000000000000000e+00  6.1114138975043635e-02 1.3028132498043377e+00 0.0000000000000000e+00  6.2076546626148831e-02 1.3233295732051293e+00 0.0000000000000000e+00  6.3054109992485230e-02 1.3441689816881071e+00 0.0000000000000000e+00  6.4047067741839728e-02 1.3653365631029935e+00 0.0000000000000000e+00  6.5055662300469941e-02 1.3868374854214864e+00 0.0000000000000000e+00  6.6080139912291572e-02 1.4086769979989961e+00 0.0000000000000000e+00  6.7120750698997769e-02 1.4308604328562518e+00 0.0000000000000000e+00  6.8177748721125156e-02 1.4533932059810908e+00 0.0000000000000000e+00  6.9251392040081738e-02 1.4762808186507501e+00 0.0000000000000000e+00  7.0341942781151273e-02 1.4995288587749760e+00 0.0000000000000000e+00  7.1449667197490158e-02 1.5231430022602896e+00 0.0000000000000000e+00  7.2574835735131918e-02 1.5471290143957344e+00 0.0000000000000000e+00  7.3717723099015364e-02 1.5714927512604449e+00 0.0000000000000000e+00  7.4878608320052650e-02 1.5962401611533832e+00 0.0000000000000000e+00  7.6057774823253418e-02 1.6213772860455911e+00 0.0000000000000000e+00  7.7255510496921781e-02 1.6469102630553085e+00 0.0000000000000000e+00  7.8472107762942944e-02 1.6728453259463254e+00 0.0000000000000000e+00  7.9707863648176780e-02 1.6991888066499277e+00 0.0000000000000000e+00  8.0963079856975539e-02 1.7259471368108088e+00 0.0000000000000000e+00  8.2238062844843751e-02 1.7531268493573300e+00 0.0000000000000000e+00  8.3533123893257899e-02 1.7807345800965038e+00 0.0000000000000000e+00  8.4848579185664449e-02 1.8087770693340979e+00 0.0000000000000000e+00  8.6184749884674616e-02 1.8372611635202505e+00 0.0000000000000000e+00  8.7541962210474875e-02 1.8661938169210026e+00 0.0000000000000000e+00  8.8920547520472085e-02 1.8955820933161496e+00 0.0000000000000000e+00  9.0320842390193029e-02 1.9254331677238321e+00 0.0000000000000000e+00  9.1743188695457750e-02 1.9557543281522860e+00 0.0000000000000000e+00  9.3187933695847158e-02 1.9865529773791777e+00 0.0000000000000000e+00  9.4655430119484740e-02 2.0178366347589578e+00 0.0000000000000000e+00  9.6146036249153785e-02 2.0496129380586807e+00 0.0000000000000000e+00  9.7660116009770384e-02 2.0818896453227298e+00 0.0000000000000000e+00  9.9198039057234177e-02 2.1146746367669107e+00 0.0000000000000000e+00  1.0076018086867818e-01 2.1479759167023715e+00 0.0000000000000000e+00  1.0234692283413986e-01 2.1818016154898192e+00 0.0000000000000000e+00  1.0395865234967591e-01 2.2161599915245134e+00 0.0000000000000000e+00  1.0559576291194318e-01 2.2510594332525131e+00 0.0000000000000000e+00  1.0725865421426922e-01 2.2865084612186841e+00 0.0000000000000000e+00  1.0894773224423562e-01 2.3225157301469470e+00 0.0000000000000000e+00  1.1066340938279812e-01 2.3590900310532947e+00 0.0000000000000000e+00  1.1240610450496753e-01 2.3962402933920774e+00 0.0000000000000000e+00  1.1417624308207629e-01 2.4339755872360902e+00 0.0000000000000000e+00  1.1597425728565541e-01 2.4723051254909914e+00 0.0000000000000000e+00  1.1780058609294725e-01 2.5112382661445931e+00 0.0000000000000000e+00  1.1965567539407976e-01 2.5507845145515722e+00 0.0000000000000000e+00  1.2153997810092880e-01 2.5909535257541609e+00 0.0000000000000000e+00  1.2345395425769440e-01 2.6317551068393836e+00 0.0000000000000000e+00  1.2539807115321860e-01 2.6731992193334122e+00 0.0000000000000000e+00  1.2737280343507196e-01 2.7152959816336302e+00 0.0000000000000000e+00  6.2459317842380201e-02 9.9804751070009912e-01 0.0000000000000000e+00  6.3442908978285181e-02 1.0137644720542713e+00 0.0000000000000000e+00  6.4441989420766857e-02 1.0297289395357174e+00 0.0000000000000000e+00  6.5456803090911370e-02 1.0459448107988030e+00 0.0000000000000000e+00  6.6487597751003102e-02 1.0624160448770184e+00 0.0000000000000000e+00  6.7534625065014689e-02 1.0791466631495610e+00 0.0000000000000000e+00  6.8598140660049628e-02 1.0961407503231346e+00 0.0000000000000000e+00  6.9678404188752568e-02 1.1134024554292143e+00 0.0000000000000000e+00  7.0775679392702351e-02 1.1309359928370142e+00 0.0000000000000000e+00  7.1890234166803318e-02 1.1487456432824055e+00 0.0000000000000000e+00  7.3022340624690735e-02 1.1668357549130417e+00 0.0000000000000000e+00  7.4172275165166071e-02 1.1852107443499378e+00 0.0000000000000000e+00  7.5340318539678583e-02 1.2038750977657695e+00 0.0000000000000000e+00  7.6526755920869508e-02 1.2228333719801525e+00 0.0000000000000000e+00  7.7731876972195801e-02 1.2420901955721704e+00 0.0000000000000000e+00  7.8955975918650043e-02 1.2616502700104204e+00 0.0000000000000000e+00  8.0199351618594317e-02 1.2815183708008577e+00 0.0000000000000000e+00  8.1462307636725087e-02 1.3016993486527140e+00 0.0000000000000000e+00  8.2745152318187173e-02 1.3221981306627757e+00 0.0000000000000000e+00  8.4048198863854923e-02 1.3430197215183137e+00 0.0000000000000000e+00  8.5371765406798722e-02 1.3641692047189560e+00 0.0000000000000000e+00  8.6716175089955883e-02 1.3856517438178009e+00 0.0000000000000000e+00  8.8081756145024531e-02 1.4074725836820767e+00 0.0000000000000000e+00  8.9468841972599897e-02 1.4296370517736516e+00 0.0000000000000000e+00  9.0877771223572629e-02 1.4521505594497115e+00 0.0000000000000000e+00  9.2308887881808951e-02 1.4750186032839183e+00 0.0000000000000000e+00  9.3762541348132722e-02 1.4982467664083738e+00 0.0000000000000000e+00  9.5239086525630193e-02 1.5218407198767170e+00 0.0000000000000000e+00  9.6738883906297965e-02 1.5458062240486876e+00 0.0000000000000000e+00  9.8262299659055571e-02 1.5701491299964916e+00 0.0000000000000000e+00  9.9809705719143965e-02 1.5948753809333143e+00 0.0000000000000000e+00  1.0138147987893190e-01 1.6199910136643316e+00 0.0000000000000000e+00  1.0297800588015227e-01 1.6455021600605673e+00 0.0000000000000000e+00  1.0459967350759092e-01 1.6714150485559629e+00 0.0000000000000000e+00  1.0624687868425094e-01 1.6977360056680235e+00 0.0000000000000000e+00  1.0792002356801547e-01 1.7244714575424074e+00 0.0000000000000000e+00  1.0961951664983284e-01 1.7516279315218424e+00 0.0000000000000000e+00  1.1134577285344774e-01 1.7792120577397474e+00 0.0000000000000000e+00  1.1309921363670315e-01 1.8072305707389507e+00 0.0000000000000000e+00  1.1488026709443726e-01 1.8356903111158971e+00 0.0000000000000000e+00  1.1668936806300108e-01 1.8645982271907529e+00 0.0000000000000000e+00  1.1852695822642174e-01 1.8939613767038037e+00 0.0000000000000000e+00  1.2039348622423771e-01 1.9237869285385734e+00 0.0000000000000000e+00  1.2228940776103217e-01 1.9540821644720741e+00 0.0000000000000000e+00  1.2421518571769130e-01 1.9848544809526205e+00 0.0000000000000000e+00  1.2617129026441454e-01 2.0161113909056394e+00 0.0000000000000000e+00  1.2815819897550468e-01 2.0478605255679194e+00 0.0000000000000000e+00  1.3017639694596542e-01 2.0801096363507403e+00 0.0000000000000000e+00  1.3222637690993522e-01 2.1128665967323483e+00 0.0000000000000000e+00  1.3430863936098617e-01 2.1461394041802322e+00 0.0000000000000000e+00  1.3642369267431723e-01 2.1799361821036656e+00 0.0000000000000000e+00  1.3857205323087196e-01 2.2142651818370065e+00 0.0000000000000000e+00  1.4075424554341043e-01 2.2491347846542205e+00 0.0000000000000000e+00  1.4297080238456689e-01 2.2845535038151334e+00 0.0000000000000000e+00  1.4522226491692367e-01 2.3205299866439058e+00 0.0000000000000000e+00  1.4750918282513384e-01 2.3570730166402396e+00 0.0000000000000000e+00  1.4983211445012423e-01 2.3941915156238309e+00 0.0000000000000000e+00  1.5219162692541172e-01 2.4318945459125900e+00 0.0000000000000000e+00  1.5458829631556667e-01 2.4701913125351718e+00 0.0000000000000000e+00  1.5702270775685645e-01 2.5090911654783388e+00 0.0000000000000000e+00  1.5949545560010375e-01 2.5486036019697194e+00 0.0000000000000000e+00  1.6200714355579487e-01 2.5887382687965164e+00 0.0000000000000000e+00  1.6455838484147289e-01 2.6295049646607254e+00 0.0000000000000000e+00  1.6714980233145210e-01 2.6709136425714455e+00 0.0000000000000000e+00  1.6978202870888992e-01 2.7129744122748636e+00 0.0000000000000000e+00  7.8045551389967313e-02 9.9694979407602868e-01 0.0000000000000000e+00  7.9274589989743724e-02 1.0126494689086942e+00 0.0000000000000000e+00  8.0522983131231213e-02 1.0285963776455307e+00 0.0000000000000000e+00  8.1791035604112453e-02 1.0447944136540130e+00 0.0000000000000000e+00  8.3079056997809236e-02 1.0612475316132335e+00 0.0000000000000000e+00  8.4387361777067391e-02 1.0779597484794183e+00 0.0000000000000000e+00  8.5716269358731875e-02 1.0949351444666491e+00 0.0000000000000000e+00  8.7066104189731056e-02 1.1121778640430307e+00 0.0000000000000000e+00  8.8437195826288964e-02 1.1296921169425429e+00 0.0000000000000000e+00  8.9829879014385008e-02 1.1474821791928302e+00 0.0000000000000000e+00  9.1244493771480778e-02 1.1655523941591739e+00 0.0000000000000000e+00  9.2681385469533736e-02 1.1839071736049065e+00 0.0000000000000000e+00  9.4140904919318230e-02 1.2025509987685234e+00 0.0000000000000000e+00  9.5623408456074546e-02 1.2214884214577579e+00 0.0000000000000000e+00  9.7129258026506446e-02 1.2407240651608857e+00 0.0000000000000000e+00  9.8658821277148867e-02 1.2602626261755274e+00 0.0000000000000000e+00  1.0021247164412732e-01 1.2801088747552307e+00 0.0000000000000000e+00  1.0179058844433055e-01 1.3002676562741065e+00 0.0000000000000000e+00  1.0339355696801912e-01 1.3207438924098038e+00 0.0000000000000000e+00  1.0502176857289237e-01 1.3415425823451184e+00 0.0000000000000000e+00  1.0667562077963665e-01 1.3626688039885193e+00 0.0000000000000000e+00  1.0835551736897815e-01 1.3841277152138980e+00 0.0000000000000000e+00  1.1006186848026439e-01 1.4059245551198418e+00 0.0000000000000000e+00  1.1179509071159774e-01 1.4280646453087349e+00 0.0000000000000000e+00  1.1355560722154606e-01 1.4505533911860053e+00 0.0000000000000000e+00  1.1534384783245513e-01 1.4733962832798315e+00 0.0000000000000000e+00  1.1716024913538765e-01 1.4965988985816281e+00 0.0000000000000000e+00  1.1900525459671524e-01 1.5201669019076465e+00 0.0000000000000000e+00  1.2087931466638865e-01 1.5441060472820130e+00 0.0000000000000000e+00  1.2278288688791324e-01 1.5684221793415494e+00 0.0000000000000000e+00  1.2471643601005608e-01 1.5931212347627146e+00 0.0000000000000000e+00  1.2668043410031249e-01 1.6182092437110187e+00 0.0000000000000000e+00  1.2867536066015905e-01 1.6436923313132612e+00 0.0000000000000000e+00  1.3070170274212192e-01 1.6695767191529525e+00 0.0000000000000000e+00  1.3275995506868851e-01 1.6958687267892880e+00 0.0000000000000000e+00  1.3485062015309168e-01 1.7225747733000396e+00 0.0000000000000000e+00  1.3697420842199642e-01 1.7497013788487448e+00 0.0000000000000000e+00  1.3913123834011798e-01 1.7772551662765770e+00 0.0000000000000000e+00  1.4132223653680290e-01 1.8052428627192825e+00 0.0000000000000000e+00  1.4354773793460313e-01 1.8336713012495798e+00 0.0000000000000000e+00  1.4580828587987518e-01 1.8625474225454270e+00 0.0000000000000000e+00  1.4810443227543563e-01 1.8918782765845552e+00 0.0000000000000000e+00  1.5043673771530575e-01 1.9216710243656900e+00 0.0000000000000000e+00  1.5280577162157805e-01 1.9519329396568788e+00 0.0000000000000000e+00  1.5521211238343832e-01 1.9826714107713483e+00 0.0000000000000000e+00  1.5765634749837662e-01 2.0138939423713285e+00 0.0000000000000000e+00  1.6013907371562230e-01 2.0456081573002840e+00 0.0000000000000000e+00  1.6266089718183774e-01 2.0778217984439959e+00 0.0000000000000000e+00  1.6522243358910615e-01 2.1105427306209554e+00 0.0000000000000000e+00  1.6782430832525044e-01 2.1437789425025224e+00 0.0000000000000000e+00  1.7046715662651857e-01 2.1775385485633252e+00 0.0000000000000000e+00  1.7315162373267393e-01 2.2118297910623750e+00 0.0000000000000000e+00  1.7587836504452753e-01 2.2466