<?xml version="1.0"?>
<VTKFile type="UnstructuredGrid"  version="0.1"  >
<UnstructuredGrid>
<Piece  NumberOfPoints="729" NumberOfCells="3072">
<Points>
<DataArray  type="Float64"  NumberOfComponents="3"  format="ascii">0 0 0  0.125 0 0  0.25 0 0  0.375 0 0  0.5 0 0  0.625 0 0  0.75 0 0  0.875 0 0  1 0 0  0 0.125 0  0.125 0.125 0  0.25 0.125 0  0.375 0.125 0  0.5 0.125 0  0.625 0.125 0  0.75 0.125 0  0.875 0.125 0  1 0.125 0  0 0.25 0  0.125 0.25 0  0.25 0.25 0  0.375 0.25 0  0.5 0.25 0  0.625 0.25 0  0.75 0.25 0  0.875 0.25 0  1 0.25 0  0 0.375 0  0.125 0.375 0  0.25 0.375 0  0.375 0.375 0  0.5 0.375 0  0.625 0.375 0  0.75 0.375 0  0.875 0.375 0  1 0.375 0  0 0.5 0  0.125 0.5 0  0.25 0.5 0  0.375 0.5 0  0.5 0.5 0  0.625 0.5 0  0.75 0.5 0  0.875 0.5 0  1 0.5 0  0 0.625 0  0.125 0.625 0  0.25 0.625 0  0.375 0.625 0  0.5 0.625 0  0.625 0.625 0  0.75 0.625 0  0.875 0.625 0  1 0.625 0  0 0.75 0  0.125 0.75 0  0.25 0.75 0  0.375 0.75 0  0.5 0.75 0  0.625 0.75 0  0.75 0.75 0  0.875 0.75 0  1 0.75 0  0 0.875 0  0.125 0.875 0  0.25 0.875 0  0.375 0.875 0  0.5 0.875 0  0.625 0.875 0  0.75 0.875 0  0.875 0.875 0  1 0.875 0  0 1 0  0.125 1 0  0.25 1 0  0.375 1 0  0.5 1 0  0.625 1 0  0.75 1 0  0.875 1 0  1 1 0  0 0 0.125  0.125 0 0.125  0.25 0 0.125  0.375 0 0.125  0.5 0 0.125  0.625 0 0.125  0.75 0 0.125  0.875 0 0.125  1 0 0.125  0 0.125 0.125  0.125 0.125 0.125  0.25 0.125 0.125  0.375 0.125 0.125  0.5 0.125 0.125  0.625 0.125 0.125  0.75 0.125 0.125  0.875 0.125 0.125  1 0.125 0.125  0 0.25 0.125  0.125 0.25 0.125  0.25 0.25 0.125  0.375 0.25 0.125  0.5 0.25 0.125  0.625 0.25 0.125  0.75 0.25 0.125  0.875 0.25 0.125  1 0.25 0.125  0 0.375 0.125  0.125 0.375 0.125  0.25 0.375 0.125  0.375 0.375 0.125  0.5 0.375 0.125  0.625 0.375 0.125  0.75 0.375 0.125  0.875 0.375 0.125  1 0.375 0.125  0 0.5 0.125  0.125 0.5 0.125  0.25 0.5 0.125  0.375 0.5 0.125  0.5 0.5 0.125  0.625 0.5 0.125  0.75 0.5 0.125  0.875 0.5 0.125  1 0.5 0.125  0 0.625 0.125  0.125 0.625 0.125  0.25 0.625 0.125  0.375 0.625 0.125  0.5 0.625 0.125  0.625 0.625 0.125  0.75 0.625 0.125  0.875 0.625 0.125  1 0.625 0.125  0 0.75 0.125  0.125 0.75 0.125  0.25 0.75 0.125  0.375 0.75 0.125  0.5 0.75 0.125  0.625 0.75 0.125  0.75 0.75 0.125  0.875 0.75 0.125  1 0.75 0.125  0 0.875 0.125  0.125 0.875 0.125  0.25 0.875 0.125  0.375 0.875 0.125  0.5 0.875 0.125  0.625 0.875 0.125  0.75 0.875 0.125  0.875 0.875 0.125  1 0.875 0.125  0 1 0.125  0.125 1 0.125  0.25 1 0.125  0.375 1 0.125  0.5 1 0.125  0.625 1 0.125  0.75 1 0.125  0.875 1 0.125  1 1 0.125  0 0 0.25  0.125 0 0.25  0.25 0 0.25  0.375 0 0.25  0.5 0 0.25  0.625 0 0.25  0.75 0 0.25  0.875 0 0.25  1 0 0.25  0 0.125 0.25  0.125 0.125 0.25  0.25 0.125 0.25  0.375 0.125 0.25  0.5 0.125 0.25  0.625 0.125 0.25  0.75 0.125 0.25  0.875 0.125 0.25  1 0.125 0.25  0 0.25 0.25  0.125 0.25 0.25  0.25 0.25 0.25  0.375 0.25 0.25  0.5 0.25 0.25  0.625 0.25 0.25  0.75 0.25 0.25  0.875 0.25 0.25  1 0.25 0.25  0 0.375 0.25  0.125 0.375 0.25  0.25 0.375 0.25  0.375 0.375 0.25  0.5 0.375 0.25  0.625 0.375 0.25  0.75 0.375 0.25  0.875 0.375 0.25  1 0.375 0.25  0 0.5 0.25  0.125 0.5 0.25  0.25 0.5 0.25  0.375 0.5 0.25  0.5 0.5 0.25  0.625 0.5 0.25  0.75 0.5 0.25  0.875 0.5 0.25  1 0.5 0.25  0 0.625 0.25  0.125 0.625 0.25  0.25 0.625 0.25  0.375 0.625 0.25  0.5 0.625 0.25  0.625 0.625 0.25  0.75 0.625 0.25  0.875 0.625 0.25  1 0.625 0.25  0 0.75 0.25  0.125 0.75 0.25  0.25 0.75 0.25  0.375 0.75 0.25  0.5 0.75 0.25  0.625 0.75 0.25  0.75 0.75 0.25  0.875 0.75 0.25  1 0.75 0.25  0 0.875 0.25  0.125 0.875 0.25  0.25 0.875 0.25  0.375 0.875 0.25  0.5 0.875 0.25  0.625 0.875 0.25  0.75 0.875 0.25  0.875 0.875 0.25  1 0.875 0.25  0 1 0.25  0.125 1 0.25  0.25 1 0.25  0.375 1 0.25  0.5 1 0.25  0.625 1 0.25  0.75 1 0.25  0.875 1 0.25  1 1 0.25  0 0 0.375  0.125 0 0.375  0.25 0 0.375  0.375 0 0.375  0.5 0 0.375  0.625 0 0.375  0.75 0 0.375  0.875 0 0.375  1 0 0.375  0 0.125 0.375  0.125 0.125 0.375  0.25 0.125 0.375  0.375 0.125 0.375  0.5 0.125 0.375  0.625 0.125 0.375  0.75 0.125 0.375  0.875 0.125 0.375  1 0.125 0.375  0 0.25 0.375  0.125 0.25 0.375  0.25 0.25 0.375  0.375 0.25 0.375  0.5 0.25 0.375  0.625 0.25 0.375  0.75 0.25 0.375  0.875 0.25 0.375  1 0.25 0.375  0 0.375 0.375  0.125 0.375 0.375  0.25 0.375 0.375  0.375 0.375 0.375  0.5 0.375 0.375  0.625 0.375 0.375  0.75 0.375 0.375  0.875 0.375 0.375  1 0.375 0.375  0 0.5 0.375  0.125 0.5 0.375  0.25 0.5 0.375  0.375 0.5 0.375  0.5 0.5 0.375  0.625 0.5 0.375  0.75 0.5 0.375  0.875 0.5 0.375  1 0.5 0.375  0 0.625 0.375  0.125 0.625 0.375  0.25 0.625 0.375  0.375 0.625 0.375  0.5 0.625 0.375  0.625 0.625 0.375  0.75 0.625 0.375  0.875 0.625 0.375  1 0.625 0.375  0 0.75 0.375  0.125 0.75 0.375  0.25 0.75 0.375  0.375 0.75 0.375  0.5 0.75 0.375  0.625 0.75 0.375  0.75 0.75 0.375  0.875 0.75 0.375  1 0.75 0.375  0 0.875 0.375  0.125 0.875 0.375  0.25 0.875 0.375  0.375 0.875 0.375  0.5 0.875 0.375  0.625 0.875 0.375  0.75 0.875 0.375  0.875 0.875 0.375  1 0.875 0.375  0 1 0.375  0.125 1 0.375  0.25 1 0.375  0.375 1 0.375  0.5 1 0.375  0.625 1 0.375  0.75 1 0.375  0.875 1 0.375  1 1 0.375  0 0 0.5  0.125 0 0.5  0.25 0 0.5  0.375 0 0.5  0.5 0 0.5  0.625 0 0.5  0.75 0 0.5  0.875 0 0.5  1 0 0.5  0 0.125 0.5  0.125 0.125 0.5  0.25 0.125 0.5  0.375 0.125 0.5  0.5 0.125 0.5  0.625 0.125 0.5  0.75 0.125 0.5  0.875 0.125 0.5  1 0.125 0.5  0 0.25 0.5  0.125 0.25 0.5  0.25 0.25 0.5  0.375 0.25 0.5  0.5 0.25 0.5  0.625 0.25 0.5  0.75 0.25 0.5  0.875 0.25 0.5  1 0.25 0.5  0 0.375 0.5  0.125 0.375 0.5  0.25 0.375 0.5  0.375 0.375 0.5  0.5 0.375 0.5  0.625 0.375 0.5  0.75 0.375 0.5  0.875 0.375 0.5  1 0.375 0.5  0 0.5 0.5  0.125 0.5 0.5  0.25 0.5 0.5  0.375 0.5 0.5  0.5 0.5 0.5  0.625 0.5 0.5  0.75 0.5 0.5  0.875 0.5 0.5  1 0.5 0.5  0 0.625 0.5  0.125 0.625 0.5  0.25 0.625 0.5  0.375 0.625 0.5  0.5 0.625 0.5  0.625 0.625 0.5  0.75 0.625 0.5  0.875 0.625 0.5  1 0.625 0.5  0 0.75 0.5  0.125 0.75 0.5  0.25 0.75 0.5  0.375 0.75 0.5  0.5 0.75 0.5  0.625 0.75 0.5  0.75 0.75 0.5  0.875 0.75 0.5  1 0.75 0.5  0 0.875 0.5  0.125 0.875 0.5  0.25 0.875 0.5  0.375 0.875 0.5  0.5 0.875 0.5  0.625 0.875 0.5  0.75 0.875 0.5  0.875 0.875 0.5  1 0.875 0.5  0 1 0.5  0.125 1 0.5  0.25 1 0.5  0.375 1 0.5  0.5 1 0.5  0.625 1 0.5  0.75 1 0.5  0.875 1 0.5  1 1 0.5  0 0 0.625  0.125 0 0.625  0.25 0 0.625  0.375 0 0.625  0.5 0 0.625  0.625 0 0.625  0.75 0 0.625  0.875 0 0.625  1 0 0.625  0 0.125 0.625  0.125 0.125 0.625  0.25 0.125 0.625  0.375 0.125 0.625  0.5 0.125 0.625  0.625 0.125 0.625  0.75 0.125 0.625  0.875 0.125 0.625  1 0.125 0.625  0 0.25 0.625  0.125 0.25 0.625  0.25 0.25 0.625  0.375 0.25 0.625  0.5 0.25 0.625  0.625 0.25 0.625  0.75 0.25 0.625  0.875 0.25 0.625  1 0.25 0.625  0 0.375 0.625  0.125 0.375 0.625  0.25 0.375 0.625  0.375 0.375 0.625  0.5 0.375 0.625  0.625 0.375 0.625  0.75 0.375 0.625  0.875 0.375 0.625  1 0.375 0.625  0 0.5 0.625  0.125 0.5 0.625  0.25 0.5 0.625  0.375 0.5 0.625  0.5 0.5 0.625  0.625 0.5 0.625  0.75 0.5 0.625  0.875 0.5 0.625  1 0.5 0.625  0 0.625 0.625  0.125 0.625 0.625  0.25 0.625 0.625  0.375 0.625 0.625  0.5 0.625 0.625  0.625 0.625 0.625  0.75 0.625 0.625  0.875 0.625 0.625  1 0.625 0.625  0 0.75 0.625  0.125 0.75 0.625  0.25 0.75 0.625  0.375 0.75 0.625  0.5 0.75 0.625  0.625 0.75 0.625  0.75 0.75 0.625  0.875 0.75 0.625  1 0.75 0.625  0 0.875 0.625  0.125 0.875 0.625  0.25 0.875 0.625  0.375 0.875 0.625  0.5 0.875 0.625  0.625 0.875 0.625  0.75 0.875 0.625  0.875 0.875 0.625  1 0.875 0.625  0 1 0.625  0.125 1 0.625  0.25 1 0.625  0.375 1 0.625  0.5 1 0.625  0.625 1 0.625  0.75 1 0.625  0.875 1 0.625  1 1 0.625  0 0 0.75  0.125 0 0.75  0.25 0 0.75  0.375 0 0.75  0.5 0 0.75  0.625 0 0.75  0.75 0 0.75  0.875 0 0.75  1 0 0.75  0 0.125 0.75  0.125 0.125 0.75  0.25 0.125 0.75  0.375 0.125 0.75  0.5 0.125 0.75  0.625 0.125 0.75  0.75 0.125 0.75  0.875 0.125 0.75  1 0.125 0.75  0 0.25 0.75  0.125 0.25 0.75  0.25 0.25 0.75  0.375 0.25 0.75  0.5 0.25 0.75  0.625 0.25 0.75  0.75 0.25 0.75  0.875 0.25 0.75  1 0.25 0.75  0 0.375 0.75  0.125 0.375 0.75  0.25 0.375 0.75  0.375 0.375 0.75  0.5 0.375 0.75  0.625 0.375 0.75  0.75 0.375 0.75  0.875 0.375 0.75  1 0.375 0.75  0 0.5 0.75  0.125 0.5 0.75  0.25 0.5 0.75  0.375 0.5 0.75  0.5 0.5 0.75  0.625 0.5 0.75  0.75 0.5 0.75  0.875 0.5 0.75  1 0.5 0.75  0 0.625 0.75  0.125 0.625 0.75  0.25 0.625 0.75  0.375 0.625 0.75  0.5 0.625 0.75  0.625 0.625 0.75  0.75 0.625 0.75  0.875 0.625 0.75  1 0.625 0.75  0 0.75 0.75  0.125 0.75 0.75  0.25 0.75 0.75  0.375 0.75 0.75  0.5 0.75 0.75  0.625 0.75 0.75  0.75 0.75 0.75  0.875 0.75 0.75  1 0.75 0.75  0 0.875 0.75  0.125 0.875 0.75  0.25 0.875 0.75  0.375 0.875 0.75  0.5 0.875 0.75  0.625 0.875 0.75  0.75 0.875 0.75  0.875 0.875 0.75  1 0.875 0.75  0 1 0.75  0.125 1 0.75  0.25 1 0.75  0.375 1 0.75  0.5 1 0.75  0.625 1 0.75  0.75 1 0.75  0.875 1 0.75  1 1 0.75  0 0 0.875  0.125 0 0.875  0.25 0 0.875  0.375 0 0.875  0.5 0 0.875  0.625 0 0.875  0.75 0 0.875  0.875 0 0.875  1 0 0.875  0 0.125 0.875  0.125 0.125 0.875  0.25 0.125 0.875  0.375 0.125 0.875  0.5 0.125 0.875  0.625 0.125 0.875  0.75 0.125 0.875  0.875 0.125 0.875  1 0.125 0.875  0 0.25 0.875  0.125 0.25 0.875  0.25 0.25 0.875  0.375 0.25 0.875  0.5 0.25 0.875  0.625 0.25 0.875  0.75 0.25 0.875  0.875 0.25 0.875  1 0.25 0.875  0 0.375 0.875  0.125 0.375 0.875  0.25 0.375 0.875  0.375 0.375 0.875  0.5 0.375 0.875  0.625 0.375 0.875  0.75 0.375 0.875  0.875 0.375 0.875  1 0.375 0.875  0 0.5 0.875  0.125 0.5 0.875  0.25 0.5 0.875  0.375 0.5 0.875  0.5 0.5 0.875  0.625 0.5 0.875  0.75 0.5 0.875  0.875 0.5 0.875  1 0.5 0.875  0 0.625 0.875  0.125 0.625 0.875  0.25 0.625 0.875  0.375 0.625 0.875  0.5 0.625 0.875  0.625 0.625 0.875  0.75 0.625 0.875  0.875 0.625 0.875  1 0.625 0.875  0 0.75 0.875  0.125 0.75 0.875  0.25 0.75 0.875  0.375 0.75 0.875  0.5 0.75 0.875  0.625 0.75 0.875  0.75 0.75 0.875  0.875 0.75 0.875  1 0.75 0.875  0 0.875 0.875  0.125 0.875 0.875  0.25 0.875 0.875  0.375 0.875 0.875  0.5 0.875 0.875  0.625 0.875 0.875  0.75 0.875 0.875  0.
[...]
<PointData  Vectors="f_782"> 
<DataArray  type="Float64"  Name="f_782"  NumberOfComponents="3" format="ascii">0.0000000000000000e+00 0.0000000000000000e+00 0.0000000000000000e+00  0.0000000000000000e+00 0.0000000000000000e+00 0.0000000000000000e+00  0.0000000000000000e+00 0.0000000000000000e+00 0.0000000000000000e+00  0.0000000000000000e+00 0.0000000000000000e+00 0.0000000000000000e+00  0.0000000000000000e+00 0.0000000000000000e+00 0.0000000000000000e+00  0.0000000000000000e+00 0.0000000000000000e+00 0.0000000000000000e+00  0.0000000000000000e+00 0.0000000000000000e+00 0.0000000000000000e+00  0.0000000000000000e+00 0.0000000000000000e+00 0.0000000000000000e+00  0.0000000000000000e+00 0.0000000000000000e+00 0.0000000000000000e+00  0.0000000000000000e+00 0.0000000000000000e+00 0.0000000000000000e+00  -2.0062897135857127e-02 2.0062897135857127e-02 0.0000000000000000e+00  -4.5468481707070713e-02 4.5468481707070713e-02 0.0000000000000000e+00  -7.7283809564496750e-02 7.7283809564496750e-02 0.0000000000000000e+00  -1.1676537234016081e-01 1.1676537234016081e-01 0.0000000000000000e+00  -1.6539062629878160e-01 1.6539062629878160e-01 0.0000000000000000e+00  -2.2489455881066175e-01 2.2489455881066175e-01 0.0000000000000000e+00  -2.9731207498935547e-01 2.9731207498935547e-01 0.0000000000000000e+00  -3.8502710611688723e-01 3.8502710611688723e-01 0.0000000000000000e+00  0.0000000000000000e+00 0.0000000000000000e+00 0.0000000000000000e+00  -4.5468481707070713e-02 4.5468481707070713e-02 0.0000000000000000e+00  -1.0304507941932897e-01 1.0304507941932897e-01 0.0000000000000000e+00  -1.7514805851024126e-01 1.7514805851024126e-01 0.0000000000000000e+00  -2.6462500207805045e-01 2.6462500207805045e-01 0.0000000000000000e+00  -3.7482426468443586e-01 3.7482426468443586e-01 0.0000000000000000e+00  -5.0967784283889472e-01 5.0967784283889472e-01 0.0000000000000000e+00  -6.7379743570455253e-01 6.7379743570455253e-01 0.0000000000000000e+00  -8.7258573937029504e-01 8.7258573937029504e-01 0.0000000000000000e+00  0.0000000000000000e+00 0.0000000000000000e+00 0.0000000000000000e+00  -7.7283809564496750e-02 7.7283809564496750e-02 0.0000000000000000e+00  -1.7514805851024126e-01 1.7514805851024126e-01 0.0000000000000000e+00  -2.9770312733780657e-01 2.9770312733780657e-01 0.0000000000000000e+00  -4.4978911762132351e-01 4.4978911762132351e-01 0.0000000000000000e+00  -6.3709730354861860e-01 6.3709730354861860e-01 0.0000000000000000e+00  -8.6631098876299628e-01 8.6631098876299628e-01 0.0000000000000000e+00  -1.1452687829235126e+00 1.1452687829235126e+00 0.0000000000000000e+00  -1.4831537711034337e+00 1.4831537711034337e+00 0.0000000000000000e+00  0.0000000000000000e+00 0.0000000000000000e+00 0.0000000000000000e+00  -1.1676537234016081e-01 1.1676537234016081e-01 0.0000000000000000e+00  -2.6462500207805045e-01 2.6462500207805045e-01 0.0000000000000000e+00  -4.4978911762132351e-01 4.4978911762132351e-01 0.0000000000000000e+00  -6.7957045711852604e-01 6.7957045711852604e-01 0.0000000000000000e+00  -9.6256776529221766e-01 9.6256776529221766e-01 0.0000000000000000e+00  -1.3088786090554427e+00 1.3088786090554427e+00 0.0000000000000000e+00  -1.7303460662873387e+00 1.7303460662873387e+00 0.0000000000000000e+00  -2.2408445351814481e+00 2.2408445351814481e+00 0.0000000000000000e+00  0.0000000000000000e+00 0.0000000000000000e+00 0.0000000000000000e+00  -1.6539062629878160e-01 1.6539062629878160e-01 0.0000000000000000e+00  -3.7482426468443586e-01 3.7482426468443586e-01 0.0000000000000000e+00  -6.3709730354861860e-01 6.3709730354861860e-01 0.0000000000000000e+00  -9.6256776529221766e-01 9.6256776529221766e-01 0.0000000000000000e+00  -1.3634152177660861e+00 1.3634152177660861e+00 0.0000000000000000e+00  -1.8539422138792920e+00 1.8539422138792920e+00 0.0000000000000000e+00  -2.4509237103547075e+00 2.4509237103547075e+00 0.0000000000000000e+00  -3.1740118982551384e+00 3.1740118982551384e+00 0.0000000000000000e+00  0.0000000000000000e+00 0.0000000000000000e+00 0.0000000000000000e+00  -2.2489455881066175e-01 2.2489455881066175e-01 0.0000000000000000e+00  -5.0967784283889472e-01 5.0967784283889472e-01 0.0000000000000000e+00  -8.6631098876299628e-01 8.6631098876299628e-01 0.0000000000000000e+00  -1.3088786090554427e+00 1.3088786090554427e+00 0.0000000000000000e+00  -1.8539422138792920e+00 1.8539422138792920e+00 0.0000000000000000e+00  -2.5209501020791278e+00 2.5209501020791278e+00 0.0000000000000000e+00  -3.3327124931678966e+00 3.3327124931678966e+00 0.0000000000000000e+00  -4.3159520070282094e+00 4.3159520070282094e+00 0.0000000000000000e+00  0.0000000000000000e+00 0.0000000000000000e+00 0.0000000000000000e+00  -2.9731207498935547e-01 2.9731207498935547e-01 0.0000000000000000e+00  -6.7379743570455253e-01 6.7379743570455253e-01 0.0000000000000000e+00  -1.1452687829235126e+00 1.1452687829235126e+00 0.0000000000000000e+00  -1.7303460662873387e+00 1.7303460662873387e+00 0.0000000000000000e+00  -2.4509237103547075e+00 2.4509237103547075e+00 0.0000000000000000e+00  -3.3327124931678966e+00 3.3327124931678966e+00 0.0000000000000000e+00  -4.4058676738412972e+00 4.4058676738412972e+00 0.0000000000000000e+00  -5.7057167303204608e+00 5.7057167303204608e+00 0.0000000000000000e+00  0.0000000000000000e+00 0.0000000000000000e+00 0.0000000000000000e+00  -3.8502710611688723e-01 3.8502710611688723e-01 0.0000000000000000e+00  -8.7258573937029504e-01 8.7258573937029504e-01 0.0000000000000000e+00  -1.4831537711034337e+00 1.4831537711034337e+00 0.0000000000000000e+00  -2.2408445351814481e+00 2.2408445351814481e+00 0.0000000000000000e+00  -3.1740118982551384e+00 3.1740118982551384e+00 0.0000000000000000e+00  -4.3159520070282094e+00 4.3159520070282094e+00 0.0000000000000000e+00  -5.7057167303204608e+00 5.7057167303204608e+00 0.0000000000000000e+00  -7.3890560989715910e+00 7.3890560989715910e+00 0.0000000000000000e+00  0.0000000000000000e+00 0.0000000000000000e+00 0.0000000000000000e+00  2.0062897135857127e-02 0.0000000000000000e+00 -2.0062897135857127e-02  4.5468481707070713e-02 0.0000000000000000e+00 -4.5468481707070713e-02  7.7283809564496750e-02 0.0000000000000000e+00 -7.7283809564496750e-02  1.1676537234016081e-01 0.0000000000000000e+00 -1.1676537234016081e-01  1.6539062629878160e-01 0.0000000000000000e+00 -1.6539062629878160e-01  2.2489455881066175e-01 0.0000000000000000e+00 -2.2489455881066175e-01  2.9731207498935547e-01 0.0000000000000000e+00 -2.9731207498935547e-01  3.8502710611688723e-01 0.0000000000000000e+00 -3.8502710611688723e-01  0.0000000000000000e+00 -2.0062897135857127e-02 2.0062897135857127e-02  -5.5273414360587315e-03 5.3284941449825433e-05 3.2734278008730465e-03  -1.2934396178524918e-02 2.2046365958015481e-02 -2.0951037482598314e-02  -1.3220194838060688e-02 4.6050175679861229e-02 -5.0933152407030863e-02  -4.2727129952703476e-03 7.4584790994878497e-02 -8.4144825136538356e-02  8.9160489683028019e-03 1.1099800844348051e-01 -1.1977571470913255e-01  1.6268813232235283e-02 1.6110824193585674e-01 -1.6171385768456947e-01  9.9418750603394324e-03 2.3943130019060796e-01 -2.2812549304874308e-01  0.0000000000000000e+00 3.8175626097450405e-01 -3.8175626097450405e-01  0.0000000000000000e+00 -4.5468481707070713e-02 4.5468481707070713e-02  -3.6272170811111490e-02 5.4914025459117735e-03 2.8198136030505840e-02  -8.3573665449818882e-02 5.3702052476342313e-02 2.7610793578697708e-03  -1.2863071652615340e-01 1.0269796069749249e-01 -2.8877807216969122e-02  -1.7009635569478102e-01 1.5853169847558823e-01 -6.1989762401988148e-02  -2.1680359538627933e-01 2.2925422596678122e-01 -9.4513308089777578e-02  -2.8271241734216984e-01 3.3126582594515219e-01 -1.3176032791108747e-01  -3.7770845958336902e-01 5.0600276570569880e-01 -1.9878867082378193e-01  -4.9438459036781163e-01 8.6517303314366933e-01 -3.7078844277585837e-01  0.0000000000000000e+00 -7.7283809564496750e-02 7.7283809564496750e-02  -7.3143624830106502e-02 2.0926154733423692e-02 5.8312134654809500e-02  -1.6752023398972263e-01 1.0651498947315953e-01 2.9245550288513111e-02  -2.6710695355040309e-01 1.9259134454896162e-01 -7.4662138398765227e-03  -3.7278827422157140e-01 2.8863570620150658e-01 -4.4964056909903502e-02  -4.9732667039845863e-01 4.0543624722006305e-01 -7.9005659108355400e-02  -6.5754800249816092e-01 5.6884620180550838e-01 -1.1349937818976692e-01  -8.6597106139371061e-01 8.5273951161630157e-01 -1.7480578725755025e-01  -1.1204222675907241e+00 1.4705542262128255e+00 -3.5013195862210122e-01  0.0000000000000000e+00 -1.1676537234016081e-01 1.1676537234016081e-01  -1.1472924669421909e-01 4.3913793816160583e-02 9.7278193670615548e-02  -2.5888116734672317e-01 1.8211261683369245e-01 6.3327857472292984e-02  -4.1750784580031780e-01 3.2554869619928878e-01 1.9497097717446021e-02  -5.9716528725456375e-01 4.8589003994644714e-01 -2.4630741633054822e-02  -8.1839728540174406e-01 6.7237153417474504e-01 -6.1727052958947468e-02  -1.1037327046249572e+00 9.1495448156686177e-01 -9.2771896687771707e-02  -1.4683147615858596e+00 1.3207896512330295e+00 -1.4464465878742316e-01  -1.9044071389530832e+00 2.2218083287785966e+00 -3.1740118982551363e-01  0.0000000000000000e+00 -1.6539062629878160e-01 1.6539062629878160e-01  -1.5906559484247143e-01 6.3121263241613518e-02 1.4805204429106730e-01  -3.5105048807059414e-01 2.6990771571490491e-01 1.0898270645468745e-01  -5.6808779487919858e-01 4.9752251564917183e-01 5.7008189826925737e-02  -8.2704389733519257e-01 7.5823773965923547e-01 4.7322424431954667e-03  -1.1638036417730635e+00 1.0556091919046531e+00 -3.7134924180135261e-02  -1.6146963739948472e+00 1.4139879477458466e+00 -6.5567918664702768e-02  -2.1997724940216283e+00 1.9606506905363970e+00 -1.0727650521206135e-01  -2.8773013380188064e+00 3.1470483384580699e+00 -2.6974700043926308e-01  0.0000000000000000e+00 -2.2489455881066175e-01 2.2489455881066175e-01  -2.0729989095777612e-01 6.1821364074364914e-02 2.1268336728475559e-01  -4.4720235060317937e-01 3.5157443681526290e-01 1.6994030914069772e-01  -7.2331461873183034e-01 6.9297986765880248e-01 1.1131592971042011e-01  -1.0646121622282652e+00 1.0992053385660401e+00 5.1091573468510718e-02  -1.5290994948671504e+00 1.5698315315576368e+00 2.1436071080509554e-03  -2.1834938690275387e+00 2.1156799040718095e+00 -2.7669048331484539e-02  -3.0731482768345866e+00 2.8467316333863946e+00 -6.1947575893999234e-02  -4.0755119502289006e+00 4.2792875477403420e+00 -2.0377559751144511e-01  0.0000000000000000e+00 -2.9731207498935547e-01 2.9731207498935547e-01  -2.7090617519304389e-01 3.0369669882542406e-02 2.9134080083729275e-01  -5.8207039200442212e-01 4.1473005528726214e-01 2.5157135352384824e-01  -9.4757571861363998e-01 8.9278838523957127e-01 1.9618079122090856e-01  -1.3999160579662060e+00 1.4830300004648829e+00 1.3597376918971310e-01  -2.0064864707692087e+00 2.1974502966900227e+00 8.2069040012524450e-02  -2.8683435691468899e+00 3.0487795875144004e+00 4.4444352554794793e-02  -4.1081886805850489e+00 4.0832954158818371e+00 6.6004856734816182e-03  -5.5417920742286908e+00 5.6572460757751228e+00 -1.1545400154643116e-01  0.0000000000000000e+00 -3.8502710611688723e-01 3.8502710611688723e-01  -3.8175626097450405e-01 0.0000000000000000e+00 3.8175626097450405e-01  -8.6517303314366933e-01 4.9438459036781163e-01 3.7078844277585837e-01  -1.4705542262128255e+00 1.1204222675907241e+00 3.5013195862210122e-01  -2.2218083287785966e+00 1.9044071389530832e+00 3.1740118982551363e-01  -3.1470483384580699e+00 2.8773013380188064e+00 2.6974700043926308e-01  -4.2792875477403420e+00 4.0755119502289006e+00 2.0377559751144511e-01  -5.6572460757751228e+00 5.5417920742286908e+00 1.1545400154643116e-01  -7.3262853021519465e+00 7.3262853021519465e+00 0.0000000000000000e+00  0.0000000000000000e+00 0.0000000000000000e+00 0.0000000000000000e+00  4.5468481707070713e-02 0.0000000000000000e+00 -4.5468481707070713e-02  1.0304507941932897e-01 0.0000000000000000e+00 -1.0304507941932897e-01  1.7514805851024126e-01 0.0000000000000000e+00 -1.7514805851024126e-01  2.6462500207805045e-01 0.0000000000000000e+00 -2.6462500207805045e-01  3.7482426468443586e-01 0.0000000000000000e+00 -3.7482426468443586e-01  5.0967784283889472e-01 0.0000000000000000e+00 -5.0967784283889472e-01  6.7379743570455253e-01 0.0000000000000000e+00 -6.7379743570455253e-01  8.7258573937029504e-01 0.0000000000000000e+00 -8.7258573937029504e-01  0.0000000000000000e+00 -4.5468481707070713e-02 4.5468481707070713e-02  1.5549905116728043e-02 -2.5739515078161669e-02 1.3700843186242481e-02  3.3470800255355024e-02 -4.6423316299492295e-03 -3.9901107947122746e-02  6.8839421555965605e-02 1.6757267187579562e-02 -1.0503798237454594e-01  1.2673392251000071e-01 4.1946607448659072e-02 -1.7430576108507737e-01  2.0435216478021773e-01 7.6113643912374809e-02 -2.4675383467944628e-01  2.9352579976136983e-01 1.2858073170757195e-01 -3.3586318057258663e-01  3.8810716872748979e-01 2.1873150777542213e-01 -4.9207689014081768e-01  4.9438459036781163e-01 3.7078844277585837e-01 -8.6517303314366933e-01  0.0000000000000000e+00 -1.0304507941932897e-01 1.0304507941932897e-01  -1.9362471536256032e-02 -5.0260209358662433e-02 7.1715498011826792e-02  -4.8664535649835548e-02 -3.7608673190552412e-03 1.4236028889960162e-02  -6.4905229521731084e-02 3.8661495575891200e-02 -5.6268691810554612e-02  -6.2688208404944629e-02 8.5674479823564506e-02 -1.2624714287911665e-01  -4.7430658109289606e-02 1.4984644669870809e-01 -1.9147101569623973e-01  -2.8525080574593149e-02 2.5574552672251033e-01 -2.6964074344302003e-01  -1.0878107603671555e-02 4.5515736250927963e-01 -4.2886295320116219e-01  0.0000000000000000e+00 8.4031670069304221e-01 -8.4031670069304221e-01  0.0000000000000000e+00 -1.7514805851024126e-01 1.7514805851024126e-01  -6.0067747182877988e-02 -6.8854889347581064e-02 1.3995367048345775e-01  -1.4354563992098718e-01 1.6095235986981142e-02 7.1821553866695934e-02  -2.2185542320739840e-01 9.3056054601476895e-02 -1.3524812106332268e-02  -2.9081845472489132e-01 1.7573582842521870e-01 -9.6247326110279849e-02  -3.5789048943584356e-01 2.8095850875284117e-01 -1.6614675265488488e-01  -4.3159846493919879e-01 4.4624958715094509e-01 -2.3805146481781828e-01  -5.1655070787654900e-01 7.6324925469834548e-01 -3.8410570973410135e-01  -6.3480237965102726e-01 1.4283053542148110e+00 -7.9350297456378460e-01  0.0000000000000000e+00 -2.6462500207805045e-01 2.6462500207805045e-01  -1.0395270369955469e-01 -8.7451374770581583e-02 2.2801194151564261e-01  -2.4115255121561452e-01 5.3079565287342104e-02 1.4590987265745409e-01  -3.8323790677536795e-01 1.8731203287460990e-01 3.9792027365620417e-02  -5.3181121000872456e-01 3.3196775787048016e-01 -6.2341704319345249e-02  -7.0126110783336459e-01 5.0200656376295383e-01 -1.4154822644048479e-01  -9.0296746234300085e-01 7.4141840916393809e-01 -2.0580420212735090e-01  -1.1409878025445603e+00 1.1852809243130482e+00 -3.2846958597453113e-01  -1.4386506690094032e+00 2.1579760035141047e+00 -7.1932533450470160e-01  0.0000000000000000e+00 -3.7482426468443586e-01 3.7482426468443586e-01  -1.4811613655118494e-01 -1.2418166347411863e-01 3.4375245626093892e-01  -3.3188485795446543e-01 8.8102121494945479e-02 2.4764354797817872e-01  -5.3188693647475649e-01 3.0944965793484641e-01 1.1793139259005976e-01  -7.6188961111320241e-01 5.5690204469525961e-01 -8.2458991519091425e-03  -1.0531584178676709e+00 8.3769940909380569e-01 -1.0183615938584197e-01  -1.4303969607792792e+00 1.1901411853424517e+00 -1.6093390602460689e-01  -1.8984288995938920e+00 1.7778535165900911e+00 -2.5621776735162188e-01  -2.4453071701373399e+00 3.0566339626716763e+00 -6.1132679253433497e-01  0.0000000000000000e+00 -5.0967784283889472e-01 5.0967784283889472e-01  -1.9473384731170415e-01 -2.0403632201491353e-01 4.9241419212402182e-01  -4.2150994874480924e-01 9.2114476561045766e-02 3.8713264276265030e-01  -6.7614464396937168e-01 4.3280022212499669e-01 2.3828969600829891e-01  -9.8706656640308488e-01 8.3485843630452317e-01 8.8490877861274200e-02  -1.4113915007828270e+00 1.2989738640628670e+00 -2.5826900420939408e-02  -2.0075320671351387e+00 1.8459597498221745e+00 -9.0498204168091664e-02  -2.8029511239126488e+00 2.6217140482626147e+00 -1.6327749702768388e-01  -3.6945280494857955e+00 4.1563440556715179e+00 -4.6181600618572466e-01  0.0000000000000000e+00 -6.7379743570455253e-01 6.7379743570455253e-01  -2.5909418633821535e-01 -3.4114841369492693e-01 6.7319053470561652e-01  -5.5562935288495841e-01 4.6649813455339868e-02 5.7662295774787797e-01  -8.9977336806405961e-01 5.2949261026954686e-01 4.3571252593059445e-01  -1.3239240563368448e+00 1.1288519174668077e+00 2.8310942370713443e-01  -1.8963772964328798e+00 1.8578499416926963e+00 1.4943727363874759e-01  -2.7147928298945923e+00 2.7335326879980575e+00 5.6063500532563530e-02  -3.8860202799414907e+00 3.8234615547613271e+00 -2.5574421438708299e-02  -5.2330609301085325e+00 5.4947139766139639e+00 -2.6165304650542681e-01  0.0000000000000000e+00 -8.7258573937029504e-01 8.7258573937029504e-01  -3.7078844277585837e-01 -4.9438459036781163e-01 8.6517303314366933e-01  -8.4031670069304221e-01 0.0000000000000000e+00 8.4031670069304221e-01  -1.4283053542148110e+00 6.3480237965102726e-01 7.9350297456378460e-01  -2.1579760035141047e+00 1.4386506690094032e+00 7.1932533450470160e-01  -3.0566339626716763e+00 2.4453071701373399e+00 6.1132679253433497e-01  -4.1563440556715179e+00 3.6945280494857955e+00 4.6181600618572466e-01  -5.4947139766139639e+00 5.2330609301085325e+00 2.6165304650542681e-01  -7.1158018773083187e+00 7.1158018773083187e+00 0.0000000000000000e+00  0.0000000000000000e+00 0.0000000000000000e+00 0.0000000000000000e+00  7.7283809564496750e-02 0.0000000000000000e+00 -7.7283809564496750e-02  1.7514805851024126e-01 0.0000000000000000e+00 -1.7514805851024126e-01  2.9770312733780657e-01 0.0000000000000000e+00 -2.9770312733780657e-01  4.4978911762132351e-01 0.0000000000000000e+00 -4.4978911762132351e-01  6.3709730354861860e-01 0.0000000000000000e+00 -6.3709730354861860e-01  8.6631098876299628e-01 0.0000000000000000e+00 -8.6631098876299628e-01  1.1452687829235126e+00 0.0000000000000000e+00 -1.1452687829235126e+00  1.4831537711034337e+00 0.0000000000000000e+00 -1.4831537711034337e+00  0.0000000000000000e+00 -7.7283809564496750e-02 7.7283809564496750e-02  4.6553512268185507e-02 -5.8501046831293292e-02 2.8818492915752308e-02  1.0395548710665481e-01 -3.7764770758547242e-02 -6.3011081626301188e-02  1.9089147803631717e-01 -1.5888757853470655e-02 -1.7452946822674634e-01  3.1439503940185742e-01 1.1863146586151502e-02 -2.9426322295567897e-01  4.7391540729119125e-01 5.1991679533736034e-02 -4.2374671889231269e-01  6.6310429775154200e-01 1.1440659879747044e-01 -5.8787937891562059e-01  8.7563854293612486e-01 2.1415126956278335e-01 -8.6492750431699705e-01  1.1204222675907241e+00 3.5013195862210122e-01 -1.4705542262128255e+00  0.0000000000000000e+00 -1.7514805851024126e-01 1.7514805851024126e-01  8.9637951511265593e-03 -1.2300387004836855e-01 1.3127132907223005e-01  1.3652534566437315e-02 -7.6357802341321335e-02 3.2590805848362873e-02  4.2982481029199590e-02 -3.1490059160424883e-02 -8.9631241200599676e-02  1.0529113171663396e-01 2.3565873102588720e-02 -2.1387143641833956e-01  1.9969101789304095e-01 1.0412868223423037e-01 -3.3706627823832808e-01  3.2245425429109548e-01 2.3425050069249381e-01 -4.9059012377810796e-01  4.7171294722904489e-01 4.5172963624213075e-01 -7.7634936065712612e-01  6.3480237965102726e-01 7.9350297456378460e-01 -1.4283053542148110e+00  0.0000000000000000e+00 -2.9770312733780657e-01 2.9770312733780657e-01  -3.5617664427980270e-02 -1.8970094451058575e-01 2.5157478517760190e-01  -9.2834385968421501e-02 -1.0325865221182580e-01 1.3566443187640392e-01  -1.3437663109053011e-01 -2.1278543461068316e-02 -1.1857785174458695e-02  -1.5136436178175788e-01 7.5216216425093130e-02 -1.5902113134860590e-01  -1.4314499116777848e-01 2.0640754475070508e-01 -2.9376358622585497e-01  -1.0781765001044098e-01 4.0685687840631213e-01 -4.4313050037852025e-01  -4.5674416710632139e-02 7.4530304946880699e-01 -7.1241853594366755e-01  0.0000000000000000e+00 1.3487350021963156e+00 -1.3487350021963156e+00  0.0000000000000000e+00 -4.