<?xml version="1.0"?>
<VTKFile type="UnstructuredGrid"  version="0.1"  >
<UnstructuredGrid>
<Piece  NumberOfPoints="1089" NumberOfCells="2048">
<Points>
<DataArray  type="Float64"  NumberOfComponents="3"  format="ascii">0 0 0  0.03125 0 0  0.0625 0 0  0.09375 0 0  0.125 0 0  0.15625 0 0  0.1875 0 0  0.21875 0 0  0.25 0 0  0.28125 0 0  0.3125 0 0  0.34375 0 0  0.375 0 0  0.40625 0 0  0.4375 0 0  0.46875 0 0  0.5 0 0  0.53125 0 0  0.5625 0 0  0.59375 0 0  0.625 0 0  0.65625 0 0  0.6875 0 0  0.71875 0 0  0.75 0 0  0.78125 0 0  0.8125 0 0  0.84375 0 0  0.875 0 0  0.90625 0 0  0.9375 0 0  0.96875 0 0  1 0 0  0 0.03125 0  0.03125 0.03125 0  0.0625 0.03125 0  0.09375 0.03125 0  0.125 0.03125 0  0.15625 0.03125 0  0.1875 0.03125 0  0.21875 0.03125 0  0.25 0.03125 0  0.28125 0.03125 0  0.3125 0.03125 0  0.34375 0.03125 0  0.375 0.03125 0  0.40625 0.03125 0  0.4375 0.03125 0  0.46875 0.03125 0  0.5 0.03125 0  0.53125 0.03125 0  0.5625 0.03125 0  0.59375 0.03125 0  0.625 0.03125 0  0.65625 0.03125 0  0.6875 0.03125 0  0.71875 0.03125 0  0.75 0.03125 0  0.78125 0.03125 0  0.8125 0.03125 0  0.84375 0.03125 0  0.875 0.03125 0  0.90625 0.03125 0  0.9375 0.03125 0  0.96875 0.03125 0  1 0.03125 0  0 0.0625 0  0.03125 0.0625 0  0.0625 0.0625 0  0.09375 0.0625 0  0.125 0.0625 0  0.15625 0.0625 0  0.1875 0.0625 0  0.21875 0.0625 0  0.25 0.0625 0  0.28125 0.0625 0  0.3125 0.0625 0  0.34375 0.0625 0  0.375 0.0625 0  0.40625 0.0625 0  0.4375 0.0625 0  0.46875 0.0625 0  0.5 0.0625 0  0.53125 0.0625 0  0.5625 0.0625 0  0.59375 0.0625 0  0.625 0.0625 0  0.65625 0.0625 0  0.6875 0.0625 0  0.71875 0.0625 0  0.75 0.0625 0  0.78125 0.0625 0  0.8125 0.0625 0  0.84375 0.0625 0  0.875 0.0625 0  0.90625 0.0625 0  0.9375 0.0625 0  0.96875 0.0625 0  1 0.0625 0  0 0.09375 0  0.03125 0.09375 0  0.0625 0.09375 0  0.09375 0.09375 0  0.125 0.09375 0  0.15625 0.09375 0  0.1875 0.09375 0  0.21875 0.09375 0  0.25 0.09375 0  0.28125 0.09375 0  0.3125 0.09375 0  0.34375 0.09375 0  0.375 0.09375 0  0.40625 0.09375 0  0.4375 0.09375 0  0.46875 0.09375 0  0.5 0.09375 0  0.53125 0.09375 0  0.5625 0.09375 0  0.59375 0.09375 0  0.625 0.09375 0  0.65625 0.09375 0  0.6875 0.09375 0  0.71875 0.09375 0  0.75 0.09375 0  0.78125 0.09375 0  0.8125 0.09375 0  0.84375 0.09375 0  0.875 0.09375 0  0.90625 0.09375 0  0.9375 0.09375 0  0.96875 0.09375 0  1 0.09375 0  0 0.125 0  0.03125 0.125 0  0.0625 0.125 0  0.09375 0.125 0  0.125 0.125 0  0.15625 0.125 0  0.1875 0.125 0  0.21875 0.125 0  0.25 0.125 0  0.28125 0.125 0  0.3125 0.125 0  0.34375 0.125 0  0.375 0.125 0  0.40625 0.125 0  0.4375 0.125 0  0.46875 0.125 0  0.5 0.125 0  0.53125 0.125 0  0.5625 0.125 0  0.59375 0.125 0  0.625 0.125 0  0.65625 0.125 0  0.6875 0.125 0  0.71875 0.125 0  0.75 0.125 0  0.78125 0.125 0  0.8125 0.125 0  0.84375 0.125 0  0.875 0.125 0  0.90625 0.125 0  0.9375 0.125 0  0.96875 0.125 0  1 0.125 0  0 0.15625 0  0.03125 0.15625 0  0.0625 0.15625 0  0.09375 0.15625 0  0.125 0.15625 0  0.15625 0.15625 0  0.1875 0.15625 0  0.21875 0.15625 0  0.25 0.15625 0  0.28125 0.15625 0  0.3125 0.15625 0  0.34375 0.15625 0  0.375 0.15625 0  0.40625 0.15625 0  0.4375 0.15625 0  0.46875 0.15625 0  0.5 0.15625 0  0.53125 0.15625 0  0.5625 0.15625 0  0.59375 0.15625 0  0.625 0.15625 0  0.65625 0.15625 0  0.6875 0.15625 0  0.71875 0.15625 0  0.75 0.15625 0  0.78125 0.15625 0  0.8125 0.15625 0  0.84375 0.15625 0  0.875 0.15625 0  0.90625 0.15625 0  0.9375 0.15625 0  0.96875 0.15625 0  1 0.15625 0  0 0.1875 0  0.03125 0.1875 0  0.0625 0.1875 0  0.09375 0.1875 0  0.125 0.1875 0  0.15625 0.1875 0  0.1875 0.1875 0  0.21875 0.1875 0  0.25 0.1875 0  0.28125 0.1875 0  0.3125 0.1875 0  0.34375 0.1875 0  0.375 0.1875 0  0.40625 0.1875 0  0.4375 0.1875 0  0.46875 0.1875 0  0.5 0.1875 0  0.53125 0.1875 0  0.5625 0.1875 0  0.59375 0.1875 0  0.625 0.1875 0  0.65625 0.1875 0  0.6875 0.1875 0  0.71875 0.1875 0  0.75 0.1875 0  0.78125 0.1875 0  0.8125 0.1875 0  0.84375 0.1875 0  0.875 0.1875 0  0.90625 0.1875 0  0.9375 0.1875 0  0.96875 0.1875 0  1 0.1875 0  0 0.21875 0  0.03125 0.21875 0  0.0625 0.21875 0  0.09375 0.21875 0  0.125 0.21875 0  0.15625 0.21875 0  0.1875 0.21875 0  0.21875 0.21875 0  0.25 0.21875 0  0.28125 0.21875 0  0.3125 0.21875 0  0.34375 0.21875 0  0.375 0.21875 0  0.40625 0.21875 0  0.4375 0.21875 0  0.46875 0.21875 0  0.5 0.21875 0  0.53125 0.21875 0  0.5625 0.21875 0  0.59375 0.21875 0  0.625 0.21875 0  0.65625 0.21875 0  0.6875 0.21875 0  0.71875 0.21875 0  0.75 0.21875 0  0.78125 0.21875 0  0.8125 0.21875 0  0.84375 0.21875 0  0.875 0.21875 0  0.90625 0.21875 0  0.9375 0.21875 0  0.96875 0.21875 0  1 0.21875 0  0 0.25 0  0.03125 0.25 0  0.0625 0.25 0  0.09375 0.25 0  0.125 0.25 0  0.15625 0.25 0  0.1875 0.25 0  0.21875 0.25 0  0.25 0.25 0  0.28125 0.25 0  0.3125 0.25 0  0.34375 0.25 0  0.375 0.25 0  0.40625 0.25 0  0.4375 0.25 0  0.46875 0.25 0  0.5 0.25 0  0.53125 0.25 0  0.5625 0.25 0  0.59375 0.25 0  0.625 0.25 0  0.65625 0.25 0  0.6875 0.25 0  0.71875 0.25 0  0.75 0.25 0  0.78125 0.25 0  0.8125 0.25 0  0.84375 0.25 0  0.875 0.25 0  0.90625 0.25 0  0.9375 0.25 0  0.96875 0.25 0  1 0.25 0  0 0.28125 0  0.03125 0.28125 0  0.0625 0.28125 0  0.09375 0.28125 0  0.125 0.28125 0  0.15625 0.28125 0  0.1875 0.28125 0  0.21875 0.28125 0  0.25 0.28125 0  0.28125 0.28125 0  0.3125 0.28125 0  0.34375 0.28125 0  0.375 0.28125 0  0.40625 0.28125 0  0.4375 0.28125 0  0.46875 0.28125 0  0.5 0.28125 0  0.53125 0.28125 0  0.5625 0.28125 0  0.59375 0.28125 0  0.625 0.28125 0  0.65625 0.28125 0  0.6875 0.28125 0  0.71875 0.28125 0  0.75 0.28125 0  0.78125 0.28125 0  0.8125 0.28125 0  0.84375 0.28125 0  0.875 0.28125 0  0.90625 0.28125 0  0.9375 0.28125 0  0.96875 0.28125 0  1 0.28125 0  0 0.3125 0  0.03125 0.3125 0  0.0625 0.3125 0  0.09375 0.3125 0  0.125 0.3125 0  0.15625 0.3125 0  0.1875 0.3125 0  0.21875 0.3125 0  0.25 0.3125 0  0.28125 0.3125 0  0.3125 0.3125 0  0.34375 0.3125 0  0.375 0.3125 0  0.40625 0.3125 0  0.4375 0.3125 0  0.46875 0.3125 0  0.5 0.3125 0  0.53125 0.3125 0  0.5625 0.3125 0  0.59375 0.3125 0  0.625 0.3125 0  0.65625 0.3125 0  0.6875 0.3125 0  0.71875 0.3125 0  0.75 0.3125 0  0.78125 0.3125 0  0.8125 0.3125 0  0.84375 0.3125 0  0.875 0.3125 0  0.90625 0.3125 0  0.9375 0.3125 0  0.96875 0.3125 0  1 0.3125 0  0 0.34375 0  0.03125 0.34375 0  0.0625 0.34375 0  0.09375 0.34375 0  0.125 0.34375 0  0.15625 0.34375 0  0.1875 0.34375 0  0.21875 0.34375 0  0.25 0.34375 0  0.28125 0.34375 0  0.3125 0.34375 0  0.34375 0.34375 0  0.375 0.34375 0  0.40625 0.34375 0  0.4375 0.34375 0  0.46875 0.34375 0  0.5 0.34375 0  0.53125 0.34375 0  0.5625 0.34375 0  0.59375 0.34375 0  0.625 0.34375 0  0.65625 0.34375 0  0.6875 0.34375 0  0.71875 0.34375 0  0.75 0.34375 0  0.78125 0.34375 0  0.8125 0.34375 0  0.84375 0.34375 0  0.875 0.34375 0  0.90625 0.34375 0  0.9375 0.34375 0  0.96875 0.34375 0  1 0.34375 0  0 0.375 0  0.03125 0.375 0  0.0625 0.375 0  0.09375 0.375 0  0.125 0.375 0  0.15625 0.375 0  0.1875 0.375 0  0.21875 0.375 0  0.25 0.375 0  0.28125 0.375 0  0.3125 0.375 0  0.34375 0.375 0  0.375 0.375 0  0.40625 0.375 0  0.4375 0.375 0  0.46875 0.375 0  0.5 0.375 0  0.53125 0.375 0  0.5625 0.375 0  0.59375 0.375 0  0.625 0.375 0  0.65625 0.375 0  0.6875 0.375 0  0.71875 0.375 0  0.75 0.375 0  0.78125 0.375 0  0.8125 0.375 0  0.84375 0.375 0  0.875 0.375 0  0.90625 0.375 0  0.9375 0.375 0  0.96875 0.375 0  1 0.375 0  0 0.40625 0  0.03125 0.40625 0  0.0625 0.40625 0  0.09375 0.40625 0  0.125 0.40625 0  0.15625 0.40625 0  0.1875 0.40625 0  0.21875 0.40625 0  0.25 0.40625 0  0.28125 0.40625 0  0.3125 0.40625 0  0.34375 0.40625 0  0.375 0.40625 0  0.40625 0.40625 0  0.4375 0.40625 0  0.46875 0.40625 0  0.5 0.40625 0  0.53125 0.40625 0  0.5625 0.40625 0  0.59375 0.40625 0  0.625 0.40625 0  0.65625 0.40625 0  0.6875 0.40625 0  0.71875 0.40625 0  0.75 0.40625 0  0.78125 0.40625 0  0.8125 0.40625 0  0.84375 0.40625 0  0.875 0.40625 0  0.90625 0.40625 0  0.9375 0.40625 0  0.96875 0.40625 0  1 0.40625 0  0 0.4375 0  0.03125 0.4375 0  0.0625 0.4375 0  0.09375 0.4375 0  0.125 0.4375 0  0.15625 0.4375 0  0.1875 0.4375 0  0.21875 0.4375 0  0.25 0.4375 0  0.28125 0.4375 0  0.3125 0.4375 0  0.34375 0.4375 0  0.375 0.4375 0  0.40625 0.4375 0  0.4375 0.4375 0  0.46875 0.4375 0  0.5 0.4375 0  0.53125 0.4375 0  0.5625 0.4375 0  0.59375 0.4375 0  0.625 0.4375 0  0.65625 0.4375 0  0.6875 0.4375 0  0.71875 0.4375 0  0.75 0.4375 0  0.78125 0.4375 0  0.8125 0.4375 0  0.84375 0.4375 0  0.875 0.4375 0  0.90625 0.4375 0  0.9375 0.4375 0  0.96875 0.4375 0  1 0.4375 0  0 0.46875 0  0.03125 0.46875 0  0.0625 0.46875 0  0.09375 0.46875 0  0.125 0.46875 0  0.15625 0.46875 0  0.1875 0.46875 0  0.21875 0.46875 0  0.25 0.46875 0  0.28125 0.46875 0  0.3125 0.46875 0  0.34375 0.46875 0  0.375 0.46875 0  0.40625 0.46875 0  0.4375 0.46875 0  0.46875 0.46875 0  0.5 0.46875 0  0.53125 0.46875 0  0.5625 0.46875 0  0.59375 0.46875 0  0.625 0.46875 0  0.65625 0.46875 0  0.6875 0.46875 0  0.71875 0.46875 0  0.75 0.46875 0  0.78125 0.46875 0  0.8125 0.46875 0  0.84375 0.46875 0  0.875 0.46875 0  0.90625 0.46875 0  0.9375 0.46875 0  0.96875 0.46875 0  1 0.46875 0  0 0.5 0  0.03125 0.5 0  0.0625 0.5 0  0.09375 0.5 0  0.125 0.5 0  0.15625 0.5 0  0.1875 0.5 0  0.21875 0.5 0  0.25 0.5 0  0.28125 0.5 0  0.3125 0.5 0  0.34375 0.5 0  0.375 0.5 0  0.40625 0.5 0  0.4375 0.5 0  0.46875 0.5 0  0.5 0.5 0  0.53125 0.5 0  0.5625 0.5 0  0.59375 0.5 0  0.625 0.5 0  0.65625 0.5 0  0.6875 0.5 0  0.71875 0.5 0  0.75 0.5 0  0.78125 0.5 0  0.8125 0.5 0  0.84375 0.5 0  0.875 0.5 0  0.90625 0.5 0  0.9375 0.5 0  0.96875 0.5 0  1 0.5 0  0 0.53125 0  0.03125 0.53125 0  0.0625 0.53125 0  0.09375 0.53125 0  0.125 0.53125 0  0.15625 0.53125 0  0.1875 0.53125 0  0.21875 0.53125 0  0.25 0.53125 0  0.28125 0.53125 0  0.3125 0.53125 0  0.34375 0.53125 0  0.375 0.53125 0  0.40625 0.53125 0  0.4375 0.53125 0  0.46875 0.53125 0  0.5 0.53125 0  0.53125 0.53125 0  0.5625 0.53125 0  0.59375 0.53125 0  0.625 0.53125 0  0.65625 0.53125 0  0.6875 0.53125 0  0.71875 0.53125 0  0.75 0.53125 0  0.78125 0.531
[...]
<PointData  Vectors="f_535"> 
<DataArray  type="Float64"  Name="f_535"  NumberOfComponents="3" format="ascii">0.0000000000000000e+00 0.0000000000000000e+00 0.0000000000000000e+00  3.2241981484346968e-02 0.0000000000000000e+00 0.0000000000000000e+00  6.6530903682366208e-02 0.0000000000000000e+00 0.0000000000000000e+00  1.0296423190385867e-01 0.0000000000000000e+00 0.0000000000000000e+00  1.4164355663335335e-01 0.0000000000000000e+00 0.0000000000000000e+00  1.8267475721398507e-01 0.0000000000000000e+00 0.0000000000000000e+00  2.2616817176643392e-01 0.0000000000000000e+00 0.0000000000000000e+00  2.7223877357383330e-01 0.0000000000000000e+00 0.0000000000000000e+00  3.2100635417193535e-01 0.0000000000000000e+00 0.0000000000000000e+00  3.7259571339249337e-01 0.0000000000000000e+00 0.0000000000000000e+00  4.2713685661681139e-01 0.0000000000000000e+00 0.0000000000000000e+00  4.8476519950571317e-01 0.0000000000000000e+00 0.0000000000000000e+00  5.4562178048182552e-01 0.0000000000000000e+00 0.0000000000000000e+00  6.0985348125004990e-01 0.0000000000000000e+00 0.0000000000000000e+00  6.7761325565243324e-01 0.0000000000000000e+00 0.0000000000000000e+00  7.4906036716435920e-01 0.0000000000000000e+00 0.0000000000000000e+00  8.2436063535006410e-01 0.0000000000000000e+00 0.0000000000000000e+00  9.0368669160696302e-01 0.0000000000000000e+00 0.0000000000000000e+00  9.8721824454016804e-01 0.0000000000000000e+00 0.0000000000000000e+00  1.0751423553208863e+00 0.0000000000000000e+00 0.0000000000000000e+00  1.1676537233951392e+00 0.0000000000000000e+00 0.0000000000000000e+00  1.2649549829224509e+00 0.0000000000000000e+00 0.0000000000000000e+00  1.3672570103378259e+00 0.0000000000000000e+00 0.0000000000000000e+00  1.4747792434444833e+00 0.0000000000000000e+00 0.0000000000000000e+00  1.5877500124595063e+00 0.0000000000000000e+00 0.0000000000000000e+00  1.7064068834497015e+00 0.0000000000000000e+00 0.0000000000000000e+00  1.8309970146107317e+00 0.0000000000000000e+00 0.0000000000000000e+00  1.9617775258588208e+00 0.0000000000000000e+00 0.0000000000000000e+00  2.0990158822212108e+00 0.0000000000000000e+00 0.0000000000000000e+00  2.2429902915289914e+00 0.0000000000000000e+00 0.0000000000000000e+00  2.3939901169339932e+00 0.0000000000000000e+00 0.0000000000000000e+00  2.5523163047901432e+00 0.0000000000000000e+00 0.0000000000000000e+00  2.7182818284590451e+00 0.0000000000000000e+00 0.0000000000000000e+00  0.0000000000000000e+00 -3.2241981484346968e-02 0.0000000000000000e+00  4.5415472390467677e-02 -4.3674806192634287e-02 0.0000000000000000e+00  8.7720689269330090e-02 -4.5329705730154782e-02 0.0000000000000000e+00  1.3000164022420324e-01 -4.3525021570579331e-02 0.0000000000000000e+00  1.7297039355001415e-01 -4.0572484302672643e-02 0.0000000000000000e+00  2.1710147924933462e-01 -3.7611610802081342e-02 0.0000000000000000e+00  2.6276815723273605e-01 -3.5273317535678479e-02 0.0000000000000000e+00  3.1019591934070129e-01 -3.3805809820168779e-02 0.0000000000000000e+00  3.5968817628618510e-01 -3.3409871929214047e-02 0.0000000000000000e+00  4.1159364633215223e-01 -3.4291737380621551e-02 0.0000000000000000e+00  4.6631695354068892e-01 -3.6553672751076155e-02 0.0000000000000000e+00  5.2416357491846399e-01 -4.0091706964827452e-02 0.0000000000000000e+00  5.8528646165023424e-01 -4.4747102841059323e-02 0.0000000000000000e+00  6.4993161804622146e-01 -5.0493865497644140e-02 0.0000000000000000e+00  7.1863163370524263e-01 -5.7236327043149980e-02 0.0000000000000000e+00  7.9160448083846857e-01 -6.4609399964976916e-02 0.0000000000000000e+00  8.6872222660327736e-01 -7.2339546961336348e-02 0.0000000000000000e+00  9.5038231594633560e-01 -8.0316855810832408e-02 0.0000000000000000e+00  1.0369427736309802e+00 -8.8277661932855730e-02 0.0000000000000000e+00  1.1283651873698644e+00 -9.5956862440227525e-02 0.0000000000000000e+00  1.2247221086916853e+00 -1.0319169993799111e-01 0.0000000000000000e+00  1.3261999367002533e+00 -1.1000288446231066e-01 0.0000000000000000e+00  1.4329078446656540e+00 -1.1643935180589227e-01 0.0000000000000000e+00  1.5448792499609862e+00 -1.2265970673696071e-01 0.0000000000000000e+00  1.6618815078696894e+00 -1.2906562878940939e-01 0.0000000000000000e+00  1.7834894936960659e+00 -1.3633240106262751e-01 0.0000000000000000e+00  1.9095885539432829e+00 -1.4488706217022410e-01 0.0000000000000000e+00  2.0364198205558499e+00 -1.5591463557209623e-01 0.0000000000000000e+00  2.1669505024413609e+00 -1.6883436526543710e-01 0.0000000000000000e+00  2.2750739867879899e+00 -1.8956346775155830e-01 0.0000000000000000e+00  2.4194482659126533e+00 -2.0002277941288654e-01 0.0000000000000000e+00  2.3642404645181516e+00 -2.4399067471023289e-01 0.0000000000000000e+00  2.8922121486196399e+00 -1.7528558476482667e-01 0.0000000000000000e+00  0.0000000000000000e+00 -6.6530903682366208e-02 0.0000000000000000e+00  5.6395666808735603e-02 -8.0149058407772769e-02 0.0000000000000000e+00  1.0686781883891155e-01 -8.3957579928284426e-02 0.0000000000000000e+00  1.5477801310229947e-01 -8.2262192799773565e-02 0.0000000000000000e+00  2.0161465878408050e-01 -7.8164406401544234e-02 0.0000000000000000e+00  2.4824881343255781e-01 -7.3597885307412486e-02 0.0000000000000000e+00  2.9545206855004036e-01 -6.9813256731963411e-02 0.0000000000000000e+00  3.4378317475641890e-01 -6.7528719674241303e-02 0.0000000000000000e+00  3.9366170309739762e-01 -6.7098163775824712e-02 0.0000000000000000e+00  4.4555042330505673e-01 -6.8776472108141543e-02 0.0000000000000000e+00  5.0006757729105822e-01 -7.2799575046112897e-02 0.0000000000000000e+00  5.5789185872514291e-01 -7.9211089630829637e-02 0.0000000000000000e+00  6.1929125909591709e-01 -8.7706339150973811e-02 0.0000000000000000e+00  6.8442377168641655e-01 -9.8028709104549069e-02 0.0000000000000000e+00  7.5404755291195635e-01 -1.1008266946555854e-01 0.0000000000000000e+00  8.2874580086510741e-01 -1.2354725016139165e-01 0.0000000000000000e+00  9.0823775321619316e-01 -1.3780707036825565e-01 0.0000000000000000e+00  9.9286060659045750e-01 -1.5246478785004020e-01 0.0000000000000000e+00  1.0830940022369939e+00 -1.6718533543432820e-01 0.0000000000000000e+00  1.1788211234288479e+00 -1.8162820060559737e-01 0.0000000000000000e+00  1.2799759665256023e+00 -1.9547654836126763e-01 0.0000000000000000e+00  1.3864682076970005e+00 -2.0859230527725223e-01 0.0000000000000000e+00  1.4982627706129465e+00 -2.2109617591360836e-01 0.0000000000000000e+00  1.6150962132223503e+00 -2.3313368489729222e-01 0.0000000000000000e+00  1.7361751740931515e+00 -2.4511458584089799e-01 0.0000000000000000e+00  1.8607475988118924e+00 -2.5759302353905406e-01 0.0000000000000000e+00  1.9886197817551843e+00 -2.7062960166268007e-01 0.0000000000000000e+00  2.1147772112674765e+00 -2.8394389286741817e-01 0.0000000000000000e+00  2.2442900909297538e+00 -2.9676327994647028e-01 0.0000000000000000e+00  2.3462338261272970e+00 -3.0660089017871556e-01 0.0000000000000000e+00  2.5110172344316122e+00 -3.1027135197992589e-01 0.0000000000000000e+00  2.5136643007382635e+00 -2.9833764632181414e-01 0.0000000000000000e+00  3.0744456906824964e+00 -3.6169949302147014e-01 0.0000000000000000e+00  0.0000000000000000e+00 -1.0296423190385867e-01 0.0000000000000000e+00  6.5365804899549032e-02 -1.1564694770099164e-01 0.0000000000000000e+00  1.2338961440487276e-01 -1.1943826034097114e-01 0.0000000000000000e+00  1.7676810258702363e-01 -1.1752970948328489e-01 0.0000000000000000e+00  2.2733657064451773e-01 -1.1280093244142156e-01 0.0000000000000000e+00  2.7634773823160086e-01 -1.0734825128668318e-01 0.0000000000000000e+00  3.2486094819490791e-01 -1.0265579861723625e-01 0.0000000000000000e+00  3.7376129121134438e-01 -9.9818591941803966e-02 0.0000000000000000e+00  4.2383454070573767e-01 -9.9539938592060215e-02 0.0000000000000000e+00  4.7566433710609474e-01 -1.0207108651500807e-01 0.0000000000000000e+00  5.2989749667201547e-01 -1.0759242014571621e-01 0.0000000000000000e+00  5.8752772797096997e-01 -1.1628452479782525e-01 0.0000000000000000e+00  6.4924440182989640e-01 -1.2800305096738746e-01 0.0000000000000000e+00  7.1516027453381825e-01 -1.4226794166104431e-01 0.0000000000000000e+00  7.8594483016878702e-01 -1.5873349686233171e-01 0.0000000000000000e+00  8.6252227920307090e-01 -1.7716516620403905e-01 0.0000000000000000e+00  9.4490464817758335e-01 -1.9702055770883520e-01 0.0000000000000000e+00  1.0332273145039004e+00 -2.1753974693205150e-01 0.0000000000000000e+00  1.1279101188407010e+00 -2.3819449135676993e-01 0.0000000000000000e+00  1.2287561085731455e+00 -2.5861645839032449e-01 0.0000000000000000e+00  1.3357183390668519e+00 -2.7850979068479342e-01 0.0000000000000000e+00  1.4483139751357887e+00 -2.9753781493074172e-01 0.0000000000000000e+00  1.5662820186733379e+00 -3.1580330068927887e-01 0.0000000000000000e+00  1.6892520550385179e+00 -3.3331764648188100e-01 0.0000000000000000e+00  1.8158976641238838e+00 -3.5020776483444938e-01 0.0000000000000000e+00  1.9456266049968514e+00 -3.6672751671139259e-01 0.0000000000000000e+00  2.0790226979693052e+00 -3.8234604250369719e-01 0.0000000000000000e+00  2.2113991381022955e+00 -3.9607841193913762e-01 0.0000000000000000e+00  2.3511808611991234e+00 -4.0641946766808945e-01 0.0000000000000000e+00  2.4669467382193604e+00 -4.1281682737068065e-01 0.0000000000000000e+00  2.6731185297830025e+00 -4.1719396961421762e-01 0.0000000000000000e+00  2.6871639266209746e+00 -4.4139799982239930e-01 0.0000000000000000e+00  3.2653343399308579e+00 -5.5977160113100433e-01 0.0000000000000000e+00  0.0000000000000000e+00 -1.4164355663335335e-01 0.0000000000000000e+00  7.3060207803921154e-02 -1.5160491711309096e-01 0.0000000000000000e+00  1.3777304521279365e-01 -1.5376568828846005e-01 0.0000000000000000e+00  1.9624542045741350e-01 -1.5072185378711200e-01 0.0000000000000000e+00  2.5034795896910089e-01 -1.4502965559687006e-01 0.0000000000000000e+00  3.0168189043330540e-01 -1.3878308329429553e-01 0.0000000000000000e+00  3.5156134373234776e-01 -1.3348489316952794e-01 0.0000000000000000e+00  4.0099204445524383e-01 -1.3028250225085475e-01 0.0000000000000000e+00  4.5108266699976507e-01 -1.3011447999462386e-01 0.0000000000000000e+00  5.0287614578951167e-01 -1.3347775388270997e-01 0.0000000000000000e+00  5.5703246076496038e-01 -1.4043264408292305e-01 0.0000000000000000e+00  6.1457151035406254e-01 -1.5107798530453442e-01 0.0000000000000000e+00  6.7658896728024354e-01 -1.6544640783089209e-01 0.0000000000000000e+00  7.4357017290561755e-01 -1.8318414055747007e-01 0.0000000000000000e+00  8.1606811719899675e-01 -2.0365144697143270e-01 0.0000000000000000e+00  8.9494390857399819e-01 -2.2639048455297678e-01 0.0000000000000000e+00  9.8056324639356518e-01 -2.5103840260906052e-01 0.0000000000000000e+00  1.0733317267929965e+00 -2.7691056119060109e-01 0.0000000000000000e+00  1.1734356196529732e+00 -3.0311480808108859e-01 0.0000000000000000e+00  1.2803888751212775e+00 -3.2913622987290064e-01 0.0000000000000000e+00  1.3941710194010197e+00 -3.5475968228562793e-01 0.0000000000000000e+00  1.5141578532261788e+00 -3.7968702751239258e-01 0.0000000000000000e+00  1.6396853851867561e+00 -4.0382955886575861e-01 0.0000000000000000e+00  1.7704742439422425e+00 -4.2718305454324179e-01 0.0000000000000000e+00  1.9048800604465463e+00 -4.4964144530513506e-01 0.0000000000000000e+00  2.0425197035928488e+00 -4.7118053629339995e-01 0.0000000000000000e+00  2.1850716172360980e+00 -4.9132619065648464e-01 0.0000000000000000e+00  2.3283656098053731e+00 -5.0943208992757372e-01 0.0000000000000000e+00  2.4836450682156781e+00 -5.2528405145153179e-01 0.0000000000000000e+00  2.6148827076560535e+00 -5.4175791733339584e-01 0.0000000000000000e+00  2.8499369831277521e+00 -5.6775714009052936e-01 0.0000000000000000e+00  2.8360604354150838e+00 -6.3035680605597377e-01 0.0000000000000000e+00  3.4652439550327849e+00 -7.7005421222950776e-01 0.0000000000000000e+00  0.0000000000000000e+00 -1.8267475721398507e-01 0.0000000000000000e+00  7.9878552437842351e-02 -1.8854773125799854e-01 0.0000000000000000e+00  1.5052060786767790e-01 -1.8780288653622221e-01 0.0000000000000000e+00  2.1371145718986070e-01 -1.8274686093326958e-01 0.0000000000000000e+00  2.7115828097004208e-01 -1.7557049154320331e-01 0.0000000000000000e+00  3.2470281855867589e-01 -1.6827498769417010e-01 0.0000000000000000e+00  3.7597568827070299e-01 -1.6237459535774426e-01 0.0000000000000000e+00  4.2610262550606065e-01 -1.5898970668356707e-01 0.0000000000000000e+00  4.7632412499349219e-01 -1.5902068714394071e-01 0.0000000000000000e+00  5.2811299013091673e-01 -1.6308873477044611e-01 0.0000000000000000e+00  5.8242161114915625e-01 -1.7139746674769216e-01 0.0000000000000000e+00  6.4022689783207209e-01 -1.8396494825455734e-01 0.0000000000000000e+00  7.0279568996195119e-01 -2.0075491758672478e-01 0.0000000000000000e+00  7.7103641070352846e-01 -2.2151812811520494e-01 0.0000000000000000e+00  8.4573918027089434e-01 -2.4569671002020607e-01 0.0000000000000000e+00  9.2763239780071405e-01 -2.7262699739313961e-01 0.0000000000000000e+00  1.0170697021521680e+00 -3.0176579172430545e-01 0.0000000000000000e+00  1.1148640570647461e+00 -3.3257401942343073e-01 0.0000000000000000e+00  1.2213256214035615e+00 -3.6423442716191601e-01 0.0000000000000000e+00  1.3355303116176138e+00 -3.9605139218960217e-01 0.0000000000000000e+00  1.4572760489796688e+00 -4.2769716820910225e-01 0.0000000000000000e+00  1.5858815151811672e+00 -4.5898800316447985e-01 0.0000000000000000e+00  1.7204470336726134e+00 -4.8987266216893799e-01 0.0000000000000000e+00  1.8606140527358452e+00 -5.2032294347852104e-01 0.0000000000000000e+00  2.0046385351619063e+00 -5.5032798303762809e-01 0.0000000000000000e+00  2.1521678375578706e+00 -5.7989580164153931e-01 0.0000000000000000e+00  2.3055040982470265e+00 -6.0904538071630332e-01 0.0000000000000000e+00  2.4605442319474151e+00 -6.3810952176778413e-01 0.0000000000000000e+00  2.6297395155422425e+00 -6.6831126057393142e-01 0.0000000000000000e+00  2.7699041115485361e+00 -7.0459360678784200e-01 0.0000000000000000e+00  3.0205743734791342e+00 -7.5638836860493641e-01 0.0000000000000000e+00  2.9629732863579843e+00 -8.4625999125611306e-01 0.0000000000000000e+00  3.6745549005917817e+00 -9.9312294610588692e-01 0.0000000000000000e+00  0.0000000000000000e+00 -2.2616817176643392e-01 0.0000000000000000e+00  8.6108103168579933e-02 -2.2683007322551066e-01 0.0000000000000000e+00  1.6206975666426349e-01 -2.2216330429819756e-01 0.0000000000000000e+00  2.2957179908544476e-01 -2.1431594444809374e-01 0.0000000000000000e+00  2.9024115915292381e-01 -2.0519732517607545e-01 0.0000000000000000e+00  3.4594555100500196e-01 -1.9655944864222941e-01 0.0000000000000000e+00  3.9863044352581350e-01 -1.8990554012130639e-01 0.0000000000000000e+00  4.4960169287611357e-01 -1.8631783182974990e-01 0.0000000000000000e+00  5.0023451880609449e-01 -1.8664303000211185e-01 0.0000000000000000e+00  5.5227316388820791e-01 -1.9147807940865694e-01 0.0000000000000000e+00  6.0695444068487792e-01 -2.0112000899537866e-01 0.0000000000000000e+00  6.6538233943603398e-01 -2.1562936051543125e-01 0.0000000000000000e+00  7.2897777482168724e-01 -2.3490677267421595e-01 0.0000000000000000e+00  7.9891103910105699e-01 -2.5867261504141487e-01 0.0000000000000000e+00  8.7623152525912007e-01 -2.8643705753549087e-01 0.0000000000000000e+00  9.6177158916877492e-01 -3.1755296762393354e-01 0.0000000000000000e+00  1.0558619671972056e+00 -3.5136612817529711e-01 0.0000000000000000e+00  1.1594502236878634e+00 -3.8725523982607185e-01 0.0000000000000000e+00  1.2730234133030276e+00 -4.2453261708057866e-01 0.0000000000000000e+00  1.3954541015380044e+00 -4.6260003214235584e-01 0.0000000000000000e+00  1.5263178118749203e+00 -5.0110968004251122e-01 0.0000000000000000e+00  1.6646953567454461e+00 -5.3991319016769679e-01 0.0000000000000000e+00  1.8095070165895648e+00 -5.7910284462720196e-01 0.0000000000000000e+00  1.9602417320230912e+00 -6.1878270207115960e-01 0.0000000000000000e+00  2.1148987556024026e+00 -6.5921261517869678e-01 0.0000000000000000e+00  2.2729471311677405e+00 -7.0075340671483888e-01 0.0000000000000000e+00  2.4366523960331179e+00 -7.4399263377452862e-01 0.0000000000000000e+00  2.6014405381976364e+00 -7.9006380403162701e-01 0.0000000000000000e+00  2.7802944542129913e+00 -8.4074523582775884e-01 0.0000000000000000e+00  2.9227260713519376e+00 -9.0058494023636426e-01 0.0000000000000000e+00  3.1816587460106103e+00 -9.7605485356795152e-01 0.0000000000000000e+00  3.0743030128397559e+00 -1.0844909215356426e+00 0.0000000000000000e+00  3.8936625994271754e+00 -1.2295776629770026e+00 0.0000000000000000e+00  0.0000000000000000e+00 -2.7223877357383330e-01 0.0000000000000000e+00  9.1887789754194982e-02 -2.6674264865579095e-01 0.0000000000000000e+00  1.7274294601258702e-01 -2.5737875134390098e-01 0.0000000000000000e+00  2.4423132135358913e-01 -2.4606537133652034e-01 0.0000000000000000e+00  3.0800561030091089e-01 -2.3450155469246764e-01 0.0000000000000000e+00  3.6590398672974278e-01 -2.2422806934577491e-01 0.0000000000000000e+00  4.2006581056887338e-01 -2.1664063042290799e-01 0.0000000000000000e+00  4.7207223367437523e-01 -2.1277210762867624e-01 0.0000000000000000e+00  5.2341170298304329e-01 -2.1338795568095528e-01 0.0000000000000000e+00  5.7603412856146885e-01 -2.1907548387136008e-01 0.0000000000000000e+00  6.3142511463338769e-01 -2.3016776397023853e-01 0.0000000000000000e+00  6.9090606027705914e-01 -2.4672489805920858e-01 0.0000000000000000e+00  7.5603182630764842e-01 -2.6859797046957118e-01 0.0000000000000000e+00  8.2817895490185678e-01 -2.9555435386631090e-01 0.0000000000000000e+00  9.0866578874251158e-01 -3.2714557221493318e-01 0.0000000000000000e+00  9.9849436667377089e-01 -3.6270566622649725e-01 0.0000000000000000e+00  1.0979705945122242e+00 -4.0155488219944013e-01 0.0000000000000000e+00  1.2081660440062396e+00 -4.4313488389873712e-01 0.0000000000000000e+00  1.3296634167930297e+00 -4.8679391122059118e-01 0.0000000000000000e+00  1.4611667103537374e+00 -5.3202432943726563e-01 0.0000000000000000e+00  1.6020257927407873e+00 -5.7859836068889980e-01 0.0000000000000000e+00  1.7510515431029694e+00 -6.2656673450976808e-01 0.0000000000000000e+00  1.9069189318379927e+00 -6.7621829387064014e-01 0.0000000000000000e+00  2.0688648957903029e+00 -7.2789423297895450e-01 0.0000000000000000e+00  2.2343556073933275e+00 -7.8211196253008641e-01 0.0000000000000000e+00  2.4024249069929575e+00 -8.3962051646081104e-01 0.0000000000000000e+00  2.5749247648911706e+00 -9.0135591431198492e-01 0.0000000000000000e+00  2.7464762636685873e+00 -9.6858582750568045e-01 0.0000000000000000e+00  2.9306644239480577e+00 -1.0427346606547183e+00 0.0000000000000000e+00  3.0707569325647599e+00 -1.1266035897494791e+00 0.0000000000000000e+00  3.3347137843825436e+00 -1.2226341312065259e+00 0.0000000000000000e+00  3.1751173774182311e+00 -1.3431830856438458e+00 0.0000000000000000e+00  4.1229781053001968e+00 -1.4800434224154551e+00 0.0000000000000000e+00  0.0000000000000000e+00 -3.2100635417193535e-01 0.0000000000000000e+00  9.7328575347171736e-02 -3.0852686767947596e-01 0.0000000000000000e+00  1.8278723241162514e-01 -2.9381323951631155e-01 0.0000000000000000e+00  2.5808369652314311e-01 -2.7851113741165451e-01 0.0000000000000000e+00  3.2489829702188139e-01 -2.6409274953727113e-01 0.0000000000000000e+00  3.8504687444501468e-01 -2.5190541193879640e-01 0.0000000000000000e+00  4.4082230825696872e-01 -2.4321576793624206e-01 0.0000000000000000e+00  4.9408627810066963e-01 -2.3898700803601458e-01 0.0000000000000000e+00  5.4646455658507587e-01 -2.3992676726989401e-01 0.0000000000000000e+00  6.0005020987809965e-01 -2.4656669604269105e-01 0.0000000000000000e+00  6.5656113126205573e-01 -2.5923598214929111e-01 0.0000000000000000e+00  7.1757813779083213e-01 -2.7801054881661003e-01 0.0000000000000000e+00  7.8480066247352087e-01 -3.0274968094659621e-01 0.0000000000000000e+00  8.5971468382571536e-01 -3.3321720808279442e-01 0.0000000000000000e+00  9.4393672368953996e-01 -3.6901903635382777e-01 0.0000000000000000e+00  1.0386924634257548e+00 -4.0953493530034774e-01 0.0000000000000000e+00  1.1442594860838151e+00 -4.5412260709508157e