<?xml version="1.0"?>
<VTKFile type="UnstructuredGrid"  version="0.1"  >
<UnstructuredGrid>
<Piece  NumberOfPoints="1089" NumberOfCells="2048">
<Points>
<DataArray  type="Float64"  NumberOfComponents="3"  format="ascii">0 0 0  0.03125 0 0  0.0625 0 0  0.09375 0 0  0.125 0 0  0.15625 0 0  0.1875 0 0  0.21875 0 0  0.25 0 0  0.28125 0 0  0.3125 0 0  0.34375 0 0  0.375 0 0  0.40625 0 0  0.4375 0 0  0.46875 0 0  0.5 0 0  0.53125 0 0  0.5625 0 0  0.59375 0 0  0.625 0 0  0.65625 0 0  0.6875 0 0  0.71875 0 0  0.75 0 0  0.78125 0 0  0.8125 0 0  0.84375 0 0  0.875 0 0  0.90625 0 0  0.9375 0 0  0.96875 0 0  1 0 0  0 0.03125 0  0.03125 0.03125 0  0.0625 0.03125 0  0.09375 0.03125 0  0.125 0.03125 0  0.15625 0.03125 0  0.1875 0.03125 0  0.21875 0.03125 0  0.25 0.03125 0  0.28125 0.03125 0  0.3125 0.03125 0  0.34375 0.03125 0  0.375 0.03125 0  0.40625 0.03125 0  0.4375 0.03125 0  0.46875 0.03125 0  0.5 0.03125 0  0.53125 0.03125 0  0.5625 0.03125 0  0.59375 0.03125 0  0.625 0.03125 0  0.65625 0.03125 0  0.6875 0.03125 0  0.71875 0.03125 0  0.75 0.03125 0  0.78125 0.03125 0  0.8125 0.03125 0  0.84375 0.03125 0  0.875 0.03125 0  0.90625 0.03125 0  0.9375 0.03125 0  0.96875 0.03125 0  1 0.03125 0  0 0.0625 0  0.03125 0.0625 0  0.0625 0.0625 0  0.09375 0.0625 0  0.125 0.0625 0  0.15625 0.0625 0  0.1875 0.0625 0  0.21875 0.0625 0  0.25 0.0625 0  0.28125 0.0625 0  0.3125 0.0625 0  0.34375 0.0625 0  0.375 0.0625 0  0.40625 0.0625 0  0.4375 0.0625 0  0.46875 0.0625 0  0.5 0.0625 0  0.53125 0.0625 0  0.5625 0.0625 0  0.59375 0.0625 0  0.625 0.0625 0  0.65625 0.0625 0  0.6875 0.0625 0  0.71875 0.0625 0  0.75 0.0625 0  0.78125 0.0625 0  0.8125 0.0625 0  0.84375 0.0625 0  0.875 0.0625 0  0.90625 0.0625 0  0.9375 0.0625 0  0.96875 0.0625 0  1 0.0625 0  0 0.09375 0  0.03125 0.09375 0  0.0625 0.09375 0  0.09375 0.09375 0  0.125 0.09375 0  0.15625 0.09375 0  0.1875 0.09375 0  0.21875 0.09375 0  0.25 0.09375 0  0.28125 0.09375 0  0.3125 0.09375 0  0.34375 0.09375 0  0.375 0.09375 0  0.40625 0.09375 0  0.4375 0.09375 0  0.46875 0.09375 0  0.5 0.09375 0  0.53125 0.09375 0  0.5625 0.09375 0  0.59375 0.09375 0  0.625 0.09375 0  0.65625 0.09375 0  0.6875 0.09375 0  0.71875 0.09375 0  0.75 0.09375 0  0.78125 0.09375 0  0.8125 0.09375 0  0.84375 0.09375 0  0.875 0.09375 0  0.90625 0.09375 0  0.9375 0.09375 0  0.96875 0.09375 0  1 0.09375 0  0 0.125 0  0.03125 0.125 0  0.0625 0.125 0  0.09375 0.125 0  0.125 0.125 0  0.15625 0.125 0  0.1875 0.125 0  0.21875 0.125 0  0.25 0.125 0  0.28125 0.125 0  0.3125 0.125 0  0.34375 0.125 0  0.375 0.125 0  0.40625 0.125 0  0.4375 0.125 0  0.46875 0.125 0  0.5 0.125 0  0.53125 0.125 0  0.5625 0.125 0  0.59375 0.125 0  0.625 0.125 0  0.65625 0.125 0  0.6875 0.125 0  0.71875 0.125 0  0.75 0.125 0  0.78125 0.125 0  0.8125 0.125 0  0.84375 0.125 0  0.875 0.125 0  0.90625 0.125 0  0.9375 0.125 0  0.96875 0.125 0  1 0.125 0  0 0.15625 0  0.03125 0.15625 0  0.0625 0.15625 0  0.09375 0.15625 0  0.125 0.15625 0  0.15625 0.15625 0  0.1875 0.15625 0  0.21875 0.15625 0  0.25 0.15625 0  0.28125 0.15625 0  0.3125 0.15625 0  0.34375 0.15625 0  0.375 0.15625 0  0.40625 0.15625 0  0.4375 0.15625 0  0.46875 0.15625 0  0.5 0.15625 0  0.53125 0.15625 0  0.5625 0.15625 0  0.59375 0.15625 0  0.625 0.15625 0  0.65625 0.15625 0  0.6875 0.15625 0  0.71875 0.15625 0  0.75 0.15625 0  0.78125 0.15625 0  0.8125 0.15625 0  0.84375 0.15625 0  0.875 0.15625 0  0.90625 0.15625 0  0.9375 0.15625 0  0.96875 0.15625 0  1 0.15625 0  0 0.1875 0  0.03125 0.1875 0  0.0625 0.1875 0  0.09375 0.1875 0  0.125 0.1875 0  0.15625 0.1875 0  0.1875 0.1875 0  0.21875 0.1875 0  0.25 0.1875 0  0.28125 0.1875 0  0.3125 0.1875 0  0.34375 0.1875 0  0.375 0.1875 0  0.40625 0.1875 0  0.4375 0.1875 0  0.46875 0.1875 0  0.5 0.1875 0  0.53125 0.1875 0  0.5625 0.1875 0  0.59375 0.1875 0  0.625 0.1875 0  0.65625 0.1875 0  0.6875 0.1875 0  0.71875 0.1875 0  0.75 0.1875 0  0.78125 0.1875 0  0.8125 0.1875 0  0.84375 0.1875 0  0.875 0.1875 0  0.90625 0.1875 0  0.9375 0.1875 0  0.96875 0.1875 0  1 0.1875 0  0 0.21875 0  0.03125 0.21875 0  0.0625 0.21875 0  0.09375 0.21875 0  0.125 0.21875 0  0.15625 0.21875 0  0.1875 0.21875 0  0.21875 0.21875 0  0.25 0.21875 0  0.28125 0.21875 0  0.3125 0.21875 0  0.34375 0.21875 0  0.375 0.21875 0  0.40625 0.21875 0  0.4375 0.21875 0  0.46875 0.21875 0  0.5 0.21875 0  0.53125 0.21875 0  0.5625 0.21875 0  0.59375 0.21875 0  0.625 0.21875 0  0.65625 0.21875 0  0.6875 0.21875 0  0.71875 0.21875 0  0.75 0.21875 0  0.78125 0.21875 0  0.8125 0.21875 0  0.84375 0.21875 0  0.875 0.21875 0  0.90625 0.21875 0  0.9375 0.21875 0  0.96875 0.21875 0  1 0.21875 0  0 0.25 0  0.03125 0.25 0  0.0625 0.25 0  0.09375 0.25 0  0.125 0.25 0  0.15625 0.25 0  0.1875 0.25 0  0.21875 0.25 0  0.25 0.25 0  0.28125 0.25 0  0.3125 0.25 0  0.34375 0.25 0  0.375 0.25 0  0.40625 0.25 0  0.4375 0.25 0  0.46875 0.25 0  0.5 0.25 0  0.53125 0.25 0  0.5625 0.25 0  0.59375 0.25 0  0.625 0.25 0  0.65625 0.25 0  0.6875 0.25 0  0.71875 0.25 0  0.75 0.25 0  0.78125 0.25 0  0.8125 0.25 0  0.84375 0.25 0  0.875 0.25 0  0.90625 0.25 0  0.9375 0.25 0  0.96875 0.25 0  1 0.25 0  0 0.28125 0  0.03125 0.28125 0  0.0625 0.28125 0  0.09375 0.28125 0  0.125 0.28125 0  0.15625 0.28125 0  0.1875 0.28125 0  0.21875 0.28125 0  0.25 0.28125 0  0.28125 0.28125 0  0.3125 0.28125 0  0.34375 0.28125 0  0.375 0.28125 0  0.40625 0.28125 0  0.4375 0.28125 0  0.46875 0.28125 0  0.5 0.28125 0  0.53125 0.28125 0  0.5625 0.28125 0  0.59375 0.28125 0  0.625 0.28125 0  0.65625 0.28125 0  0.6875 0.28125 0  0.71875 0.28125 0  0.75 0.28125 0  0.78125 0.28125 0  0.8125 0.28125 0  0.84375 0.28125 0  0.875 0.28125 0  0.90625 0.28125 0  0.9375 0.28125 0  0.96875 0.28125 0  1 0.28125 0  0 0.3125 0  0.03125 0.3125 0  0.0625 0.3125 0  0.09375 0.3125 0  0.125 0.3125 0  0.15625 0.3125 0  0.1875 0.3125 0  0.21875 0.3125 0  0.25 0.3125 0  0.28125 0.3125 0  0.3125 0.3125 0  0.34375 0.3125 0  0.375 0.3125 0  0.40625 0.3125 0  0.4375 0.3125 0  0.46875 0.3125 0  0.5 0.3125 0  0.53125 0.3125 0  0.5625 0.3125 0  0.59375 0.3125 0  0.625 0.3125 0  0.65625 0.3125 0  0.6875 0.3125 0  0.71875 0.3125 0  0.75 0.3125 0  0.78125 0.3125 0  0.8125 0.3125 0  0.84375 0.3125 0  0.875 0.3125 0  0.90625 0.3125 0  0.9375 0.3125 0  0.96875 0.3125 0  1 0.3125 0  0 0.34375 0  0.03125 0.34375 0  0.0625 0.34375 0  0.09375 0.34375 0  0.125 0.34375 0  0.15625 0.34375 0  0.1875 0.34375 0  0.21875 0.34375 0  0.25 0.34375 0  0.28125 0.34375 0  0.3125 0.34375 0  0.34375 0.34375 0  0.375 0.34375 0  0.40625 0.34375 0  0.4375 0.34375 0  0.46875 0.34375 0  0.5 0.34375 0  0.53125 0.34375 0  0.5625 0.34375 0  0.59375 0.34375 0  0.625 0.34375 0  0.65625 0.34375 0  0.6875 0.34375 0  0.71875 0.34375 0  0.75 0.34375 0  0.78125 0.34375 0  0.8125 0.34375 0  0.84375 0.34375 0  0.875 0.34375 0  0.90625 0.34375 0  0.9375 0.34375 0  0.96875 0.34375 0  1 0.34375 0  0 0.375 0  0.03125 0.375 0  0.0625 0.375 0  0.09375 0.375 0  0.125 0.375 0  0.15625 0.375 0  0.1875 0.375 0  0.21875 0.375 0  0.25 0.375 0  0.28125 0.375 0  0.3125 0.375 0  0.34375 0.375 0  0.375 0.375 0  0.40625 0.375 0  0.4375 0.375 0  0.46875 0.375 0  0.5 0.375 0  0.53125 0.375 0  0.5625 0.375 0  0.59375 0.375 0  0.625 0.375 0  0.65625 0.375 0  0.6875 0.375 0  0.71875 0.375 0  0.75 0.375 0  0.78125 0.375 0  0.8125 0.375 0  0.84375 0.375 0  0.875 0.375 0  0.90625 0.375 0  0.9375 0.375 0  0.96875 0.375 0  1 0.375 0  0 0.40625 0  0.03125 0.40625 0  0.0625 0.40625 0  0.09375 0.40625 0  0.125 0.40625 0  0.15625 0.40625 0  0.1875 0.40625 0  0.21875 0.40625 0  0.25 0.40625 0  0.28125 0.40625 0  0.3125 0.40625 0  0.34375 0.40625 0  0.375 0.40625 0  0.40625 0.40625 0  0.4375 0.40625 0  0.46875 0.40625 0  0.5 0.40625 0  0.53125 0.40625 0  0.5625 0.40625 0  0.59375 0.40625 0  0.625 0.40625 0  0.65625 0.40625 0  0.6875 0.40625 0  0.71875 0.40625 0  0.75 0.40625 0  0.78125 0.40625 0  0.8125 0.40625 0  0.84375 0.40625 0  0.875 0.40625 0  0.90625 0.40625 0  0.9375 0.40625 0  0.96875 0.40625 0  1 0.40625 0  0 0.4375 0  0.03125 0.4375 0  0.0625 0.4375 0  0.09375 0.4375 0  0.125 0.4375 0  0.15625 0.4375 0  0.1875 0.4375 0  0.21875 0.4375 0  0.25 0.4375 0  0.28125 0.4375 0  0.3125 0.4375 0  0.34375 0.4375 0  0.375 0.4375 0  0.40625 0.4375 0  0.4375 0.4375 0  0.46875 0.4375 0  0.5 0.4375 0  0.53125 0.4375 0  0.5625 0.4375 0  0.59375 0.4375 0  0.625 0.4375 0  0.65625 0.4375 0  0.6875 0.4375 0  0.71875 0.4375 0  0.75 0.4375 0  0.78125 0.4375 0  0.8125 0.4375 0  0.84375 0.4375 0  0.875 0.4375 0  0.90625 0.4375 0  0.9375 0.4375 0  0.96875 0.4375 0  1 0.4375 0  0 0.46875 0  0.03125 0.46875 0  0.0625 0.46875 0  0.09375 0.46875 0  0.125 0.46875 0  0.15625 0.46875 0  0.1875 0.46875 0  0.21875 0.46875 0  0.25 0.46875 0  0.28125 0.46875 0  0.3125 0.46875 0  0.34375 0.46875 0  0.375 0.46875 0  0.40625 0.46875 0  0.4375 0.46875 0  0.46875 0.46875 0  0.5 0.46875 0  0.53125 0.46875 0  0.5625 0.46875 0  0.59375 0.46875 0  0.625 0.46875 0  0.65625 0.46875 0  0.6875 0.46875 0  0.71875 0.46875 0  0.75 0.46875 0  0.78125 0.46875 0  0.8125 0.46875 0  0.84375 0.46875 0  0.875 0.46875 0  0.90625 0.46875 0  0.9375 0.46875 0  0.96875 0.46875 0  1 0.46875 0  0 0.5 0  0.03125 0.5 0  0.0625 0.5 0  0.09375 0.5 0  0.125 0.5 0  0.15625 0.5 0  0.1875 0.5 0  0.21875 0.5 0  0.25 0.5 0  0.28125 0.5 0  0.3125 0.5 0  0.34375 0.5 0  0.375 0.5 0  0.40625 0.5 0  0.4375 0.5 0  0.46875 0.5 0  0.5 0.5 0  0.53125 0.5 0  0.5625 0.5 0  0.59375 0.5 0  0.625 0.5 0  0.65625 0.5 0  0.6875 0.5 0  0.71875 0.5 0  0.75 0.5 0  0.78125 0.5 0  0.8125 0.5 0  0.84375 0.5 0  0.875 0.5 0  0.90625 0.5 0  0.9375 0.5 0  0.96875 0.5 0  1 0.5 0  0 0.53125 0  0.03125 0.53125 0  0.0625 0.53125 0  0.09375 0.53125 0  0.125 0.53125 0  0.15625 0.53125 0  0.1875 0.53125 0  0.21875 0.53125 0  0.25 0.53125 0  0.28125 0.53125 0  0.3125 0.53125 0  0.34375 0.53125 0  0.375 0.53125 0  0.40625 0.53125 0  0.4375 0.53125 0  0.46875 0.53125 0  0.5 0.53125 0  0.53125 0.53125 0  0.5625 0.53125 0  0.59375 0.53125 0  0.625 0.53125 0  0.65625 0.53125 0  0.6875 0.53125 0  0.71875 0.53125 0  0.75 0.53125 0  0.78125 0.531
[...]
<PointData  Vectors="f_503"> 
<DataArray  type="Float64"  Name="f_503"  NumberOfComponents="3" format="ascii">0.0000000000000000e+00 -0.0000000000000000e+00 0.0000000000000000e+00  3.2241981484346961e-02 -0.0000000000000000e+00 0.0000000000000000e+00  6.6530903682366208e-02 -0.0000000000000000e+00 0.0000000000000000e+00  1.0296423190385867e-01 -0.0000000000000000e+00 0.0000000000000000e+00  1.4164355663335329e-01 -0.0000000000000000e+00 0.0000000000000000e+00  1.8267475721398505e-01 -0.0000000000000000e+00 0.0000000000000000e+00  2.2616817176643389e-01 -0.0000000000000000e+00 0.0000000000000000e+00  2.7223877357383330e-01 -0.0000000000000000e+00 0.0000000000000000e+00  3.2100635417193535e-01 -0.0000000000000000e+00 0.0000000000000000e+00  3.7259571339249342e-01 -0.0000000000000000e+00 0.0000000000000000e+00  4.2713685661681133e-01 -0.0000000000000000e+00 0.0000000000000000e+00  4.8476519950571306e-01 -0.0000000000000000e+00 0.0000000000000000e+00  5.4562178048182552e-01 -0.0000000000000000e+00 0.0000000000000000e+00  6.0985348125004990e-01 -0.0000000000000000e+00 0.0000000000000000e+00  6.7761325565243324e-01 -0.0000000000000000e+00 0.0000000000000000e+00  7.4906036716435931e-01 -0.0000000000000000e+00 0.0000000000000000e+00  8.2436063535006410e-01 -0.0000000000000000e+00 0.0000000000000000e+00  9.0368669160696291e-01 -0.0000000000000000e+00 0.0000000000000000e+00  9.8721824454016793e-01 -0.0000000000000000e+00 0.0000000000000000e+00  1.0751423553208861e+00 -0.0000000000000000e+00 0.0000000000000000e+00  1.1676537233951390e+00 -0.0000000000000000e+00 0.0000000000000000e+00  1.2649549829224511e+00 -0.0000000000000000e+00 0.0000000000000000e+00  1.3672570103378257e+00 -0.0000000000000000e+00 0.0000000000000000e+00  1.4747792434444833e+00 -0.0000000000000000e+00 0.0000000000000000e+00  1.5877500124595061e+00 -0.0000000000000000e+00 0.0000000000000000e+00  1.7064068834497015e+00 -0.0000000000000000e+00 0.0000000000000000e+00  1.8309970146107319e+00 -0.0000000000000000e+00 0.0000000000000000e+00  1.9617775258588208e+00 -0.0000000000000000e+00 0.0000000000000000e+00  2.0990158822212108e+00 -0.0000000000000000e+00 0.0000000000000000e+00  2.2429902915289914e+00 -0.0000000000000000e+00 0.0000000000000000e+00  2.3939901169339937e+00 -0.0000000000000000e+00 0.0000000000000000e+00  2.5523163047901427e+00 -0.0000000000000000e+00 0.0000000000000000e+00  2.7182818284590451e+00 -0.0000000000000000e+00 0.0000000000000000e+00  0.0000000000000000e+00 -3.2241981484346961e-02 0.0000000000000000e+00  3.4305188164172280e-02 -3.4305135405142476e-02 0.0000000000000000e+00  7.0788250187430873e-02 -3.6466747702514624e-02 0.0000000000000000e+00  1.0955313369521777e-01 -3.8731004646229882e-02 0.0000000000000000e+00  1.5070787903374294e-01 -4.1102239322149042e-02 0.0000000000000000e+00  1.9436510930085607e-01 -4.3584964794810672e-02 0.0000000000000000e+00  2.4064218904805926e-01 -4.6183873647107909e-02 0.0000000000000000e+00  2.8966141906483028e-01 -4.8903844517255747e-02 0.0000000000000000e+00  3.4155023146757341e-01 -5.1749947912061847e-02 0.0000000000000000e+00  3.9644139092116870e-01 -5.4727453567105296e-02 0.0000000000000000e+00  4.5447320373985478e-01 -5.7841838063428498e-02 0.0000000000000000e+00  5.1578973490717217e-01 -6.1098792739309266e-02 0.0000000000000000e+00  5.8054103342627916e-01 -6.4504231889710245e-02 0.0000000000000000e+00  6.4888336629862919e-01 -6.8064301252174719e-02 0.0000000000000000e+00  7.2097946143405967e-01 -7.1785386796247186e-02 0.0000000000000000e+00  7.9699875981687840e-01 -7.5674123834172310e-02 0.0000000000000000e+00  8.7711767727453660e-01 -7.9737406472231612e-02 0.0000000000000000e+00  9.6151987622180546e-01 -8.3982397423268268e-02 0.0000000000000000e+00  1.0503965477819559e+00 -8.8416538202191655e-02 0.0000000000000000e+00  1.1439467047175900e+00 -9.3047559727871862e-02 0.0000000000000000e+00  1.2423774856377867e+00 -9.7883493357187185e-02 0.0000000000000000e+00  1.3459044709885031e+00 -1.0293268237980677e-01 0.0000000000000000e+00  1.4547520113732200e+00 -1.0820379400813603e-01 0.0000000000000000e+00  1.5691535688196998e+00 -1.1370583190051899e-01 0.0000000000000000e+00  1.6893520716252524e+00 -1.1944814927941237e-01 0.0000000000000000e+00  1.8156002837348120e+00 -1.2544046267352263e-01 0.0000000000000000e+00  1.9481611885029537e+00 -1.3169286662105606e-01 0.0000000000000000e+00  2.0873083925240339e+00 -1.3821584848797044e-01 0.0000000000000000e+00  2.2333265351177114e+00 -1.4502030732109619e-01 0.0000000000000000e+00  2.3865117349352127e+00 -1.5211756952987812e-01 0.0000000000000000e+00  2.5471720963053568e+00 -1.5951940151080152e-01 0.0000000000000000e+00  2.7156279239027254e+00 -1.6723799140967177e-01 0.0000000000000000e+00  2.8922121486196399e+00 -1.7528558476482667e-01 0.0000000000000000e+00  0.0000000000000000e+00 -6.6530903682366208e-02 0.0000000000000000e+00  3.6466803386993492e-02 -7.0788198935587202e-02 0.0000000000000000e+00  7.5248821433388055e-02 -7.5248764601194049e-02 0.0000000000000000e+00  1.1645651182575537e-01 -7.9921148896653887e-02 0.0000000000000000e+00  1.6020471622005764e-01 -8.4814266653705589e-02 0.0000000000000000e+00  2.0661315030380945e-01 -8.9937422328454045e-02 0.0000000000000000e+00  2.5580656002711877e-01 -9.5300299567812455e-02 0.0000000000000000e+00  3.0791493895651367e-01 -1.0091296692239789e-01 0.0000000000000000e+00  3.6307373469024673e-01 -1.0678588951591240e-01 0.0000000000000000e+00  4.2142406411545685e-01 -1.1292994343992152e-01 0.0000000000000000e+00  4.8311293580502046e-01 -1.1935643120042314e-01 0.0000000000000000e+00  5.4829348059956673e-01 -1.2607709798461353e-01 0.0000000000000000e+00  6.1712519094217466e-01 -1.3310414857386380e-01 0.0000000000000000e+00  6.8977416933817537e-01 -1.4045026488051462e-01 0.0000000000000000e+00  7.6641338631684741e-01 -1.4812862412646677e-01 0.0000000000000000e+00  8.4722294826753275e-01 -1.5615291769899925e-01 0.0000000000000000e+00  9.3239037554236226e-01 -1.6453737072908259e-01 0.0000000000000000e+00  1.0221108912468964e+00 -1.7329676244329956e-01 0.0000000000000000e+00  1.1165877211749513e+00 -1.8244644734561252e-01 0.0000000000000000e+00  1.2160324053841831e+00 -1.9200237729080502e-01 0.0000000000000000e+00  1.3206651219537677e+00 -2.0198112451829600e-01 0.0000000000000000e+00  1.4307150235181194e+00 -2.1239990572405698e-01 0.0000000000000000e+00  1.5464205872205028e+00 -2.2327660726036372e-01 0.0000000000000000e+00  1.6680299788194741e+00 -2.3462981156997517e-01 0.0000000000000000e+00  1.7958014316585940e+00 -2.4647882498114171e-01 0.0000000000000000e+00  1.9300036415765378e+00 -2.5884370703348286e-01 0.0000000000000000e+00  2.0709161778182819e+00 -2.7174530145483899e-01 0.0000000000000000e+00  2.2188299139136793e+00 -2.8520526910566740e-01 0.0000000000000000e+00  2.3740474647127070e+00 -2.9924612269541007e-01 0.0000000000000000e+00  2.5368836888997084e+00 -3.1389125952032004e-01 0.0000000000000000e+00  2.7076660119150846e+00 -3.2916498634455832e-01 0.0000000000000000e+00  2.8867353465485919e+00 -3.4509257071609839e-01 0.0000000000000000e+00  3.0744456906824964e+00 -3.6169949302147014e-01 0.0000000000000000e+00  0.0000000000000000e+00 -1.0296423190385867e-01 0.0000000000000000e+00  3.8731062025704643e-02 -1.0955307172661258e-01 0.0000000000000000e+00  7.9921194390461650e-02 -1.1645644211358044e-01 0.0000000000000000e+00  1.2368765372670464e-01 -1.2368760794720537e-01 0.0000000000000000e+00  1.7015239584804384e-01 -1.3126037224776441e-01 0.0000000000000000e+00  2.1944256610777957e-01 -1.3918913092190591e-01 0.0000000000000000e+00  2.7169065235339962e-01 -1.4748886775870754e-01 0.0000000000000000e+00  3.2703471514782118e-01 -1.5617516420792432e-01 0.0000000000000000e+00  3.8561860596625153e-01 -1.6526421687721365e-01 0.0000000000000000e+00  4.4759219688223340e-01 -1.7477285882262353e-01 0.0000000000000000e+00  5.1311161698007524e-01 -1.8471858302672090e-01 0.0000000000000000e+00  5.8233949751089620e-01 -1.9511956734282054e-01 0.0000000000000000e+00  6.5544522617307821e-01 -2.0599470056812672e-01 0.0000000000000000e+00  7.3260521101513643e-01 -2.1736360956317857e-01 0.0000000000000000e+00  8.1400315440576010e-01 -2.2924668741223281e-01 0.0000000000000000e+00  8.9983033749884433e-01 -2.4166512266821896e-01 0.0000000000000000e+00  9.9028591563656632e-01 -2.5464092975014951e-01 0.0000000000000000e+00  1.0855772251591820e+00 -2.6819698057604591e-01 0.0000000000000000e+00  1.1859201021253221e+00 -2.8235703752629332e-01 0.0000000000000000e+00  1.2915392134887274e+00 -2.9714578784353735e-01 0.0000000000000000e+00  1.4026684013243267e+00 -3.1258887958734827e-01 0.0000000000000000e+00  1.5195510407503390e+00 -3.2871295927578120e-01 0.0000000000000000e+00  1.6424404122409209e+00 -3.4554571136197482e-01 0.0000000000000000e+00  1.7716000891016768e+00 -3.6311589971028430e-01 0.0000000000000000e+00  1.9073043408276364e+00 -3.8145341125115018e-01 0.0000000000000000e+00  2.0498385534211621e+00 -4.0058930197778198e-01 0.0000000000000000e+00  2.1994996663919624e+00 -4.2055584539411878e-01 0.0000000000000000e+00  2.3565966304504475e+00 -4.4138658318754725e-01 0.0000000000000000e+00  2.5214508732655170e+00 -4.6311637695190777e-01 0.0000000000000000e+00  2.6943968176936766e+00 -4.8578145656331195e-01 0.0000000000000000e+00  2.8757822788168279e+00 -5.0941946309246688e-01 0.0000000000000000e+00  3.0659694296558273e+00 -5.3406940411805204e-01 0.0000000000000000e+00  3.2653343399308579e+00 -5.5977160113100422e-01 0.0000000000000000e+00  0.0000000000000000e+00 -1.4164355663335329e-01 0.0000000000000000e+00  4.1102296066215203e-02 -1.5070779250801619e-01 0.0000000000000000e+00  8.4814287550403336e-02 -1.6020461440388556e-01 0.0000000000000000e+00  1.3126036412311387e-01 -1.7015232880143058e-01 0.0000000000000000e+00  1.8056992999768987e-01 -1.8056994877684310e-01 0.0000000000000000e+00  2.3287790811427533e-01 -1.9147728190998520e-01 0.0000000000000000e+00  2.8832489632920122e-01 -2.0289493953970469e-01 0.0000000000000000e+00  3.4705740714803057e-01 -2.1484435506984614e-01 0.0000000000000000e+00  4.0922809779164165e-01 -2.2734780881529462e-01 0.0000000000000000e+00  4.7499601377082395e-01 -2.4042845716578051e-01 0.0000000000000000e+00  5.4452683978200445e-01 -2.5411036461701569e-01 0.0000000000000000e+00  6.1799316011115113e-01 -2.6841853783805275e-01 0.0000000000000000e+00  6.9557472864593872e-01 -2.8337896140310120e-01 0.0000000000000000e+00  7.7745874908458723e-01 -2.9901863504327802e-01 0.0000000000000000e+00  8.6384016580482459e-01 -3.1536561239233307e-01 0.0000000000000000e+00  9.5492196586701594e-01 -3.3244904127365321e-01 0.0000000000000000e+00  1.0509154926370572e+00 -3.5029920561509181e-01 0.0000000000000000e+00  1.1520407715379588e+00 -3.6894756910470672e-01 0.0000000000000000e+00  1.2585268484723586e+00 -3.8842682072031248e-01 0.0000000000000000e+00  1.3706121414984034e+00 -4.0877092228305528e-01 0.0000000000000000e+00  1.4885448063859985e+00 -4.3001515820188796e-01 0.0000000000000000e+00  1.6125831167303124e+00 -4.5219618759216346e-01 0.0000000000000000e+00  1.7429958593391426e+00 -4.7535209896609915e-01 0.0000000000000000e+00  1.8800627456773260e+00 -4.9952246770023656e-01 0.0000000000000000e+00  2.0240748400739430e+00 -5.2474841647323178e-01 0.0000000000000000e+00  2.1753350057454379e+00 -5.5107267880306199e-01 0.0000000000000000e+00  2.3341583682511255e+00 -5.7853966564305770e-01 0.0000000000000000e+00  2.5008728009119072e+00 -6.0719553448964947e-01 0.0000000000000000e+00  2.6758194177816326e+00 -6.3708825960010051e-01 0.0000000000000000e+00  2.8593531298446409e+00 -6.6826769993781177e-01 0.0000000000000000e+00  3.0518430679705637e+00 -7.0078565717705488e-01 0.0000000000000000e+00  3.2536736244144260e+00 -7.3469593073054851e-01 0.0000000000000000e+00  3.4652439550327849e+00 -7.7005421222950776e-01 0.0000000000000000e+00  0.0000000000000000e+00 -1.8267475721398505e-01 0.0000000000000000e+00  4.3585018352847268e-02 -1.9436497664276278e-01 0.0000000000000000e+00  8.9937406424333663e-02 -2.0661298157921396e-01 0.0000000000000000e+00  1.3918904079867153e-01 -2.1944243577041708e-01 0.0000000000000000e+00  1.9147712837839287e-01 -2.3287789308459830e-01 0.0000000000000000e+00  2.4694473542777365e-01 -2.4694491009032468e-01 0.0000000000000000e+00  3.0574095150135128e-01 -2.6167007098890593e-01 0.0000000000000000e+00  3.6802113997888292e-01 -2.7708101736009866e-01 0.0000000000000000e+00  4.3394718044278802e-01 -2.9320648253247156e-01 0.0000000000000000e+00  5.0368772613766366e-01 -3.1007632989307909e-01 0.0000000000000000e+00  5.7741846980297307e-01 -3.2772159425718256e-01 0.0000000000000000e+00  6.5532241984920803e-01 -3.4617452571278184e-01 0.0000000000000000e+00  7.3759018680304456e-01 -3.6546863561278281e-01 0.0000000000000000e+00  8.2442028060736539e-01 -3.8563874456615627e-01 0.0000000000000000e+00  9.1601941922602892e-01 -4.0672103240615665e-01 0.0000000000000000e+00  1.0126028490555070e+00 -4.2875309019159374e-01 0.0000000000000000e+00  1.1143946776565365e+00 -4.5177397434727434e-01 0.0000000000000000e+00  1.2216282193449883e+00 -4.7582426308538955e-01 0.0000000000000000e+00  1.3345463542131883e+00 -5.0094611527665933e-01 0.0000000000000000e+00  1.4534019011907269e+00 -5.2718333196291800e-01 0.0000000000000000e+00  1.5784580057951627e+00 -5.5458142072305039e-01 0.0000000000000000e+00  1.7099885432688997e+00 -5.8318766312122972e-01 0.0000000000000000e+00  1.8482785378330577e+00 -6.1305118547697446e-01 0.0000000000000000e+00  1.9936245988532759e+00 -6.4422303319224161e-01 0.0000000000000000e+00  2.1463353746285545e+00 -6.7675624883661445e-01 0.0000000000000000e+00  2.3067320249079515e+00 -7.1070595409104798e-01 0.0000000000000000e+00  2.4751487117905975e+00 -7.4612943544652943e-01 0.0000000000000000e+00  2.6519331140337798e+00 -7.8308623309343117e-01 0.0000000000000000e+00  2.8374469502934407e+00 -8.2163823198430463e-01 0.0000000000000000e+00  3.0320665713182691e+00 -8.6184975234662253e-01 0.0000000000000000e+00  3.2361834093529223e+00 -9.0378764125625044e-01 0.0000000000000000e+00  3.4502050944350948e+00 -9.4752135655678493e-01 0.0000000000000000e+00  3.6745549005917821e+00 -9.9312294610588703e-01 0.0000000000000000e+00  0.0000000000000000e+00 -2.2616817176643389e-01 0.0000000000000000e+00  4.6183921739412770e-02 -2.4064198269484907e-01 0.0000000000000000e+00  9.5300235775324788e-02 -2.5580627774679909e-01 0.0000000000000000e+00  1.4748867030696983e-01 -2.7169039960135577e-01 0.0000000000000000e+00  2.0289460685284774e-01 -2.8832478136479212e-01 0.0000000000000000e+00  2.6166963873738647e-01 -3.0574107899140240e-01 0.0000000000000000e+00  3.2397174549614999e-01 -3.2397221112303132e-01 0.0000000000000000e+00  3.8996555655494902e-01 -3.4305240127262676e-01 0.0000000000000000e+00  4.5982260689864668e-01 -3.6301722309139517e-01 0.0000000000000000e+00  5.3372160904154908e-01 -3.8390364898158652e-01 0.0000000000000000e+00  6.1184873436001042e-01 -4.0575010174830556e-01 0.0000000000000000e+00  6.9439790563172787e-01 -4.2859650900213425e-01 0.0000000000000000e+00  7.8157110061137869e-01 -4.5248436010768767e-01 0.0000000000000000e+00  8.7357866718080990e-01 -4.7745676559026728e-01 0.0000000000000000e+00  9.7063965050562673e-01 -5.0355851900834947e-01 0.0000000000000000e+00  1.0729821327096110e+00 -5.3083616136997580e-01 0.0000000000000000e+00  1.1808435855950978e+00 -5.5933804822415167e-01 0.0000000000000000e+00  1.2944712369694318e+00 -5.8911441959852950e-01 0.0000000000000000e+00  1.4141224511697437e+00 -6.2021747298693286e-01 0.0000000000000000e+00  1.5400651244151662e+00 -6.5270143961764049e-01 0.0000000000000000e+00  1.6725780956554184e+00 -6.8662266425667351e-01 0.0000000000000000e+00  1.8119515736295886e+00 -7.2203968881821878e-01 0.0000000000000000e+00  1.9584875808841151e+00 -7.5901334006254662e-01 0.0000000000000000e+00  2.1125004155716005e+00 -7.9760682165131958e-01 0.0000000000000000e+00  2.2743171317796507e+00 -8.3788581078740787e-01 0.0000000000000000e+00  2.4442780396030943e+00 -8.7991855956296894e-01 0.0000000000000000e+00  2.6227372246958609e+00 -9.2377600096883272e-01 0.0000000000000000e+00  2.8100630929610158e+00 -9.6953185919088469e-01 0.0000000000000000e+00  3.0066389250603045e+00 -1.0172627636788605e+00 0.0000000000000000e+00  3.2128635055501675e+00 -1.0670483657717609e+00 0.0000000000000000e+00  3.4291515968989885e+00 -1.1189714600217979e+00 0.0000000000000000e+00  3.6559351312407786e+00 -1.1731181040161716e+00 0.0000000000000000e+00  3.8936625994271745e+00 -1.2295776629770026e+00 0.0000000000000000e+00  0.0000000000000000e+00 -2.7223877357383330e-01 0.0000000000000000e+00  4.8903885199549524e-02 -2.8966110606362822e-01 0.0000000000000000e+00  1.0091284575502062e-01 -3.0791448564823753e-01 0.0000000000000000e+00  1.5617483782007080e-01 -3.2703426513193629e-01 0.0000000000000000e+00  2.1484380520773361e-01 -3.4705710604147849e-01 0.0000000000000000e+00  2.7708026916804213e-01 -3.6802112781016671e-01 0.0000000000000000e+00  3.4305151507143716e-01 -3.8996596113787962e-01 0.0000000000000000e+00  4.1293187115197821e-01 -4.1293280273403804e-01 0.0000000000000000e+00  4.8690297867756799e-01 -4.3696447229339880e-01 0.0000000000000000e+00  5.6515407936887396e-01 -4.6210547236050253e-01 0.0000000000000000e+00  6.4788231297469290e-01 -4.8840205116072372e-01 0.0000000000000000e+00  7.3529302689354492e-01 -5.1590226837168685e-01 0.0000000000000000e+00  8.2760009762274711e-01 -5.4465606378537124e-01 0.0000000000000000e+00  9.2502626454155368e-01 -5.7471532886096022e-01 0.0000000000000000e+00  1.0278034764472834e+00 -6.0613398122660178e-01 0.0000000000000000e+00  1.1361732513560092e+00 -6.3896804224453452e-01 0.0000000000000000e+00  1.2503870501047838e+00 -6.7327571780233864e-01 0.0000000000000000e+00  1.3707066643297467e+00 -7.0911748253376639e-01 0.0000000000000000e+00  1.4974046194281974e+00 -7.4655616770787281e-01 0.0000000000000000e+00  1.6307645931505119e+00 -7.8565705305612832e-01 0.0000000000000000e+00  1.7710818505082191e+00 -8.2648796283400550e-01 0.0000000000000000e+00  1.9186636957321523e+00 -8.6911936643426180e-01 0.0000000000000000e+00  2.0738299420556392e+00 -9.1362448387965944e-01 0.0000000000000000e+00  2.2369134001861481e+00 -9.6007939651525409e-01 0.0000000000000000e+00  2.4082603862747396e+00 -1.0085631631852723e+00 0.0000000000000000e+00  2.5882312507278584e+00 -1.0591579420989063e+00 0.0000000000000000e+00  2.7772009276805600e+00 -1.1119491184795416e+00 0.0000000000000000e+00  2.9755595113353634e+00 -1.1670254378846168e+00 0.0000000000000000e+00  3.1837128427711496e+00 -1.2244791452050026e+00 0.0000000000000000e+00  3.4020831768099322e+00 -1.2844061286717035e+00 0.0000000000000000e+00  3.6311096798427385e+00 -1.3469060720114836e+00 0.0000000000000000e+00  3.8712497015769891e+00 -1.4120826072559984e+00 0.0000000000000000e+00  4.1229781053001968e+00 -1.4800434224154553e+00 0.0000000000000000e+00  0.0000000000000000e+00 -3.2100635417193535e-01 0.0000000000000000e+00  5.1749979738926186e-02 -3.4154977434888656e-01 0.0000000000000000e+00  1.0678570354493953e-01 -3.6307304406043661e-01 0.0000000000000000e+00  1.6526374455521542e-01 -3.8561787102046868e-01 0.0000000000000000e+00  2.2734701175235383e-01 -4.0922750781941414e-01 0.0000000000000000e+00  2.9320537211107944e-01 -4.3394691611552122e-01 0.0000000000000000e+00  3.6301585060680147e-01 -4.5982283258428508e-01 0.0000000000000000e+00  4.3696292543509851e-01 -4.8690383615748728e-01 0.0000000000000000e+00  5.1523881388917570e-01 -5.1524041717014157e-01 0.0000000000000000e+00  5.9804377625915062e-01 -5.4488504919420377e-01 0.0000000000000000e+00  6.8558643052845480e-01 -5.7589226384517844e-01 0.0000000000000000e+00  7.7808407990320272e-01 -6.0831872872003745e-01 0.0000000000000000e+00  8.7576305294798273e-01 -6.4222332855255448e-01 0.0000000000000000e+00  9.7885905683519692e-01 -6.7766724967708158e-01 0.0000000000000000e+00  1.0876175441234461e+00 -7.1471406792059555e-01 0.0000000000000000e+00  1.2022940935787187e+00 -7.5342984008253866e-01 0.0000000000000000e+00  1.32315480