<?xml version="1.0"?>
<VTKFile type="UnstructuredGrid"  version="0.1"  >
<UnstructuredGrid>
<Piece  NumberOfPoints="16641" NumberOfCells="32768">
<Points>
<DataArray  type="Float64"  NumberOfComponents="3"  format="ascii">0 0 0  0.0078125 0 0  0.015625 0 0  0.0234375 0 0  0.03125 0 0  0.0390625 0 0  0.046875 0 0  0.0546875 0 0  0.0625 0 0  0.0703125 0 0  0.078125 0 0  0.0859375 0 0  0.09375 0 0  0.1015625 0 0  0.109375 0 0  0.1171875 0 0  0.125 0 0  0.1328125 0 0  0.140625 0 0  0.1484375 0 0  0.15625 0 0  0.1640625 0 0  0.171875 0 0  0.1796875 0 0  0.1875 0 0  0.1953125 0 0  0.203125 0 0  0.2109375 0 0  0.21875 0 0  0.2265625 0 0  0.234375 0 0  0.2421875 0 0  0.25 0 0  0.2578125 0 0  0.265625 0 0  0.2734375 0 0  0.28125 0 0  0.2890625 0 0  0.296875 0 0  0.3046875 0 0  0.3125 0 0  0.3203125 0 0  0.328125 0 0  0.3359375 0 0  0.34375 0 0  0.3515625 0 0  0.359375 0 0  0.3671875 0 0  0.375 0 0  0.3828125 0 0  0.390625 0 0  0.3984375 0 0  0.40625 0 0  0.4140625 0 0  0.421875 0 0  0.4296875 0 0  0.4375 0 0  0.4453125 0 0  0.453125 0 0  0.4609375 0 0  0.46875 0 0  0.4765625 0 0  0.484375 0 0  0.4921875 0 0  0.5 0 0  0.5078125 0 0  0.515625 0 0  0.5234375 0 0  0.53125 0 0  0.5390625 0 0  0.546875 0 0  0.5546875 0 0  0.5625 0 0  0.5703125 0 0  0.578125 0 0  0.5859375 0 0  0.59375 0 0  0.6015625 0 0  0.609375 0 0  0.6171875 0 0  0.625 0 0  0.6328125 0 0  0.640625 0 0  0.6484375 0 0  0.65625 0 0  0.6640625 0 0  0.671875 0 0  0.6796875 0 0  0.6875 0 0  0.6953125 0 0  0.703125 0 0  0.7109375 0 0  0.71875 0 0  0.7265625 0 0  0.734375 0 0  0.7421875 0 0  0.75 0 0  0.7578125 0 0  0.765625 0 0  0.7734375 0 0  0.78125 0 0  0.7890625 0 0  0.796875 0 0  0.8046875 0 0  0.8125 0 0  0.8203125 0 0  0.828125 0 0  0.8359375 0 0  0.84375 0 0  0.8515625 0 0  0.859375 0 0  0.8671875 0 0  0.875 0 0  0.8828125 0 0  0.890625 0 0  0.8984375 0 0  0.90625 0 0  0.9140625 0 0  0.921875 0 0  0.9296875 0 0  0.9375 0 0  0.9453125 0 0  0.953125 0 0  0.9609375 0 0  0.96875 0 0  0.9765625 0 0  0.984375 0 0  0.9921875 0 0  1 0 0  0 0.0078125 0  0.0078125 0.0078125 0  0.015625 0.0078125 0  0.0234375 0.0078125 0  0.03125 0.0078125 0  0.0390625 0.0078125 0  0.046875 0.0078125 0  0.0546875 0.0078125 0  0.0625 0.0078125 0  0.0703125 0.0078125 0  0.078125 0.0078125 0  0.0859375 0.0078125 0  0.09375 0.0078125 0  0.1015625 0.0078125 0  0.109375 0.0078125 0  0.1171875 0.0078125 0  0.125 0.0078125 0  0.1328125 0.0078125 0  0.140625 0.0078125 0  0.1484375 0.0078125 0  0.15625 0.0078125 0  0.1640625 0.0078125 0  0.171875 0.0078125 0  0.1796875 0.0078125 0  0.1875 0.0078125 0  0.1953125 0.0078125 0  0.203125 0.0078125 0  0.2109375 0.0078125 0  0.21875 0.0078125 0  0.2265625 0.0078125 0  0.234375 0.0078125 0  0.2421875 0.0078125 0  0.25 0.0078125 0  0.2578125 0.0078125 0  0.265625 0.0078125 0  0.2734375 0.0078125 0  0.28125 0.0078125 0  0.2890625 0.0078125 0  0.296875 0.0078125 0  0.3046875 0.0078125 0  0.3125 0.0078125 0  0.3203125 0.0078125 0  0.328125 0.0078125 0  0.3359375 0.0078125 0  0.34375 0.0078125 0  0.3515625 0.0078125 0  0.359375 0.0078125 0  0.3671875 0.0078125 0  0.375 0.0078125 0  0.3828125 0.0078125 0  0.390625 0.0078125 0  0.3984375 0.0078125 0  0.40625 0.0078125 0  0.4140625 0.0078125 0  0.421875 0.0078125 0  0.4296875 0.0078125 0  0.4375 0.0078125 0  0.4453125 0.0078125 0  0.453125 0.0078125 0  0.4609375 0.0078125 0  0.46875 0.0078125 0  0.4765625 0.0078125 0  0.484375 0.0078125 0  0.4921875 0.0078125 0  0.5 0.0078125 0  0.5078125 0.0078125 0  0.515625 0.0078125 0  0.5234375 0.0078125 0  0.53125 0.0078125 0  0.5390625 0.0078125 0  0.546875 0.0078125 0  0.5546875 0.0078125 0  0.5625 0.0078125 0  0.5703125 0.0078125 0  0.578125 0.0078125 0  0.5859375 0.0078125 0  0.59375 0.0078125 0  0.6015625 0.0078125 0  0.609375 0.0078125 0  0.6171875 0.0078125 0  0.625 0.0078125 0  0.6328125 0.0078125 0  0.640625 0.0078125 0  0.6484375 0.0078125 0  0.65625 0.0078125 0  0.6640625 0.0078125 0  0.671875 0.0078125 0  0.6796875 0.0078125 0  0.6875 0.0078125 0  0.6953125 0.0078125 0  0.703125 0.0078125 0  0.7109375 0.0078125 0  0.71875 0.0078125 0  0.7265625 0.0078125 0  0.734375 0.0078125 0  0.7421875 0.0078125 0  0.75 0.0078125 0  0.7578125 0.0078125 0  0.765625 0.0078125 0  0.7734375 0.0078125 0  0.78125 0.0078125 0  0.7890625 0.0078125 0  0.796875 0.0078125 0  0.8046875 0.0078125 0  0.8125 0.0078125 0  0.8203125 0.0078125 0  0.828125 0.0078125 0  0.8359375 0.0078125 0  0.84375 0.0078125 0  0.8515625 0.0078125 0  0.859375 0.0078125 0  0.8671875 0.0078125 0  0.875 0.0078125 0  0.8828125 0.0078125 0  0.890625 0.0078125 0  0.8984375 0.0078125 0  0.90625 0.0078125 0  0.9140625 0.0078125 0  0.921875 0.0078125 0  0.9296875 0.0078125 0  0.9375 0.0078125 0  0.9453125 0.0078125 0  0.953125 0.0078125 0  0.9609375 0.0078125 0  0.96875 0.0078125 0  0.9765625 0.0078125 0  0.984375 0.0078125 0  0.9921875 0.0078125 0  1 0.0078125 0  0 0.015625 0  0.0078125 0.015625 0  0.015625 0.015625 0  0.0234375 0.015625 0  0.03125 0.015625 0  0.0390625 0.015625 0  0.046875 0.015625 0  0.0546875 0.015625 0  0.0625 0.015625 0  0.0703125 0.015625 0  0.078125 0.015625 0  0.0859375 0.015625 0  0.09375 0.015625 0  0.1015625 0.015625 0  0.109375 0.015625 0  0.1171875 0.015625 0  0.125 0.015625 0  0.1328125 0.015625 0  0.140625 0.015625 0  0.1484375 0.015625 0  0.15625 0.015625 0  0.1640625 0.015625 0  0.171875 0.015625 0  0.1796875 0.015625 0  0.1875 0.015625 0  0.1953125 0.015625 0  0.203125 0.015625 0  0.2109375 0.015625 0  0.21875 0.015625 0  0.2265625 0.015625 0  0.234375 0.015625 0  0.2421875 0.015625 0  0.25 0.015625 0  0.2578125 0.015625 0  0.265625 0.015625 0  0.2734375 0.015625 0  0.28125 0.015625 0  0.2890625 0.015625 0  0.296875 0.015625 0  0.3046875 0.015625 0  0.3125 0.015625 0  0.3203125 0.015625 0  0.328125 0.015625 0  0.3359375 0.015625 0  0.34375 0.015625 0  0.3515625 0.015625 0  0.359375 0.015625 0  0.3671875 0.015625 0  0.375 0.015625 0  0.3828125 0.015625 0  0.390625 0.015625 0  0.3984375 0.015625 0  0.40625 0.015625 0  0.4140625 0.015625 0  0.421875 0.015625 0  0.4296875 0.015625 0  0.4375 0.015625 0  0.4453125 0.015625 0  0.453125 0.015625 0  0.4609375 0.015625 0  0.46875 0.015625 0  0.4765625 0.015625 0  0.484375 0.015625 0  0.4921875 0.015625 0  0.5 0.015625 0  0.5078125 0.015625 0  0.515625 0.015625 0  0.5234375 0.015625 0  0.53125 0.015625 0  0.5390625 0.015625 0  0.546875 0.015625 0  0.5546875 0.015625 0  0.5625 0.015625 0  0.5703125 0.015625 0  0.578125 0.015625 0  0.5859375 0.015625 0  0.59375 0.015625 0  0.6015625 0.015625 0  0.609375 0.015625 0  0.6171875 0.015625 0  0.625 0.015625 0  0.6328125 0.015625 0  0.640625 0.015625 0  0.6484375 0.015625 0  0.65625 0.015625 0  0.6640625 0.015625 0  0.671875 0.015625 0  0.6796875 0.015625 0  0.6875 0.015625 0  0.6953125 0.015625 0  0.703125 0.015625 0  0.7109375 0.015625 0  0.71875 0.015625 0  0.7265625 0.015625 0  0.734375 0.015625 0  0.7421875 0.015625 0  0.75 0.015625 0  0.7578125 0.015625 0  0.765625 0.015625 0  0.7734375 0.015625 0  0.78125 0.015625 0  0.7890625 0.015625 0  0.796875 0.015625 0  0.8046875 0.015625 0  0.8125 0.015625 0  0.8203125 0.015625 0  0.828125 0.015625 0  0.8359375 0.015625 0  0.84375 0.015625 0  0.8515625 0.015625 0  0.859375 0.015625 0  0.8671875 0.015625 0  0.875 0.015625 0  0.8828125 0.015625 0  0.890625 0.015625 0  0.8984375 0.015625 0  0.90625 0.015625 0  0.9140625 0.015625 0  0.921875 0.015625 0  0.9296875 0.015625 0  0.9375 0.015625 0  0.9453125 0.015625 0  0.953125 0.015625 0  0.9609375 0.015625 0  0.96875 0.015625 0  0.9765625 0.015625 0  0.984375 0.015625 0  0.9921875 0.015625 0  1 0.015625 0  0 0.0234375 0  0.0078125 0.0234375 0  0.015625 0.0234375 0  0.0234375 0.0234375 0  0.03125 0.0234375 0  0.0390625 0.0234375 0  0.046875 0.0234375 0  0.0546875 0.0234375 0  0.0625 0.0234375 0  0.0703125 0.0234375 0  0.078125 0.0234375 0  0.0859375 0.0234375 0  0.09375 0.0234375 0  0.1015625 0.0234375 0  0.109375 0.0234375 0  0.1171875 0.0234375 0  0.125 0.0234375 0  0.1328125 0.0234375 0  0.140625 0.0234375 0  0.1484375 0.0234375 0  0.15625 0.0234375 0  0.1640625 0.0234375 0  0.171875 0.0234375 0  0.1796875 0.0234375 0  0.1875 0.0234375 0  0.1953125 0.0234375 0  0.203125 0.0234375 0  0.2109375 0.0234375 0  0.21875 0.0234375 0  0.2265625 0.0234375 0  0.234375 0.0234375 0  0.2421875 0.0234375 0  0.25 0.0234375 0  0.2578125 0.0234375 0  0.265625 0.0234375 0  0.2734375 0.0234375 0  0.28125 0.0234375 0  0.2890625 0.0234375 0  0.296875 0.0234375 0  0.3046875 0.0234375 0  0.3125 0.0234375 0  0.3203125 0.0234375 0  0.328125 0.0234375 0  0.3359375 0.0234375 0  0.34375 0.0234375 0  0.3515625 0.0234375 0  0.359375 0.0234375 0  0.3671875 0.0234375 0  0.375 0.0234375 0  0.3828125 0.0234375 0  0.390625 0.0234375 0  0.3984375 0.0234375 0  0.40625 0.0234375 0  0.4140625 0.0234375 0  0.421875 0.0234375 0  0.4296875 0.0234375 0  0.4375 0.0234375 0  0.4453125 0.0234375 0  0.453125 0.0234375 0  0.4609375 0.0234375 0  0.46875 0.0234375 0  0.4765625 0.0234375 0  0.484375 0.0234375 0  0.4921875 0.0234375 0  0.5 0.0234375 0  0.5078125 0.0234375 0  0.515625 0.0234375 0  0.5234375 0.0234375 0  0.53125 0.0234375 0  0.5390625 0.0234375 0  0.546875 0.0234375 0  0.5546875 0.0234375 0  0.5625 0.0234375 0  0.5703125 0.0234375 0  0.578125 0.0234375 0  0.5859375 0.0234375 0  0.59375 0.0234375 0  0.6015625 0.0234375 0  0.609375 0.0234375 0  0.6171875 0.0234375 0  0.625 0.0234375 0  0.6328125 0.0234375 0  0.640625 0.0234375 0  0.6484375 0.0234375 0  0.65625 0.0234375 0  0.6640625 0.0234375 0  0.671875 0.0234375 0  0.6796875 0.0234375 0  0.6875 0.0234375 0  0.6953125 0.0234375 0  0.703125 0.0234375 0  0.7109375 0.0234375 0  0.71875 0.0234375 0  0.7265625 0.0234375 0  0.734375 0.0234375 0  0.7421875 0.0234375 0  0.75 0.0234375 0  0.7578125 0.0234375 0  0.765625 0.0234375 0  0.7734375 0.0234375 0  0.78125 0.0234375 0  0.7890625 0.0234375 0  0.796875 0.0234375 0  0.8046875 0.0234375 0  0.8125 0.0234375 0  0.8203125 0.0234375 0  0.828125 0.0234375 0  0.8359375 0.0234375 0  0.84375 0.0234375 0  0.8515625 0.0234375 0  0.859375 0.0234375 0  0.8671
[...]
<PointData  Vectors="f_1272"> 
<DataArray  type="Float64"  Name="f_1272"  NumberOfComponents="3" format="ascii">0.0000000000000000e+00 0.0000000000000000e+00 0.0000000000000000e+00  7.8737741981241526e-03 0.0000000000000000e+00 0.0000000000000000e+00  1.5871057949083327e-02 0.0000000000000000e+00 0.0000000000000000e+00  2.3993304299020739e-02 0.0000000000000000e+00 0.0000000000000000e+00  3.2241981489255792e-02 0.0000000000000000e+00 0.0000000000000000e+00  4.0618573105255643e-02 0.0000000000000000e+00 0.0000000000000000e+00  4.9124578227008851e-02 0.0000000000000000e+00 0.0000000000000000e+00  5.7761511580813871e-02 0.0000000000000000e+00 0.0000000000000000e+00  6.6530903692495508e-02 0.0000000000000000e+00 0.0000000000000000e+00  7.5434301042062155e-02 0.0000000000000000e+00 0.0000000000000000e+00  8.4473266219817225e-02 0.0000000000000000e+00 0.0000000000000000e+00  9.3649378083937959e-02 0.0000000000000000e+00 0.0000000000000000e+00  1.0296423191953487e-01 0.0000000000000000e+00 0.0000000000000000e+00  1.1241943959920600e-01 0.0000000000000000e+00 0.0000000000000000e+00  1.2201662974509830e-01 0.0000000000000000e+00 0.0000000000000000e+00  1.3175744789249172e-01 0.0000000000000000e+00 0.0000000000000000e+00  1.4164355665491843e-01 0.0000000000000000e+00 0.0000000000000000e+00  1.5167663589083191e-01 0.0000000000000000e+00 0.0000000000000000e+00  1.6185838287183957e-01 0.0000000000000000e+00 0.0000000000000000e+00  1.7219051245251413e-01 0.0000000000000000e+00 0.0000000000000000e+00  1.8267475724179708e-01 0.0000000000000000e+00 0.0000000000000000e+00  1.9331286777600928e-01 0.0000000000000000e+00 0.0000000000000000e+00  2.0410661269348301e-01 0.0000000000000000e+00 0.0000000000000000e+00  2.1505777891083125e-01 0.0000000000000000e+00 0.0000000000000000e+00  2.2616817180086796e-01 0.0000000000000000e+00 0.0000000000000000e+00  2.3743961537219452e-01 0.0000000000000000e+00 0.0000000000000000e+00  2.4887395245046895e-01 0.0000000000000000e+00 0.0000000000000000e+00  2.6047304486137135e-01 0.0000000000000000e+00 0.0000000000000000e+00  2.7223877361528148e-01 0.0000000000000000e+00 0.0000000000000000e+00  2.8417303909368580e-01 0.0000000000000000e+00 0.0000000000000000e+00  2.9627776123732685e-01 0.0000000000000000e+00 0.0000000000000000e+00  3.0855487973611395e-01 0.0000000000000000e+00 0.0000000000000000e+00  3.2100635422080837e-01 0.0000000000000000e+00 0.0000000000000000e+00  3.3363416445650140e-01 0.0000000000000000e+00 0.0000000000000000e+00  3.4644031053789909e-01 0.0000000000000000e+00 0.0000000000000000e+00  3.5942681308643509e-01 0.0000000000000000e+00 0.0000000000000000e+00  3.7259571344922093e-01 0.0000000000000000e+00 0.0000000000000000e+00  3.8594907389985617e-01 0.0000000000000000e+00 0.0000000000000000e+00  3.9948897784111570e-01 0.0000000000000000e+00 0.0000000000000000e+00  4.1321753000952360e-01 0.0000000000000000e+00 0.0000000000000000e+00  4.2713685668184287e-01 0.0000000000000000e+00 0.0000000000000000e+00  4.4124910588348609e-01 0.0000000000000000e+00 0.0000000000000000e+00  4.5555644759887626e-01 0.0000000000000000e+00 0.0000000000000000e+00  4.7006107398376157e-01 0.0000000000000000e+00 0.0000000000000000e+00  4.8476519957951830e-01 0.0000000000000000e+00 0.0000000000000000e+00  4.9967106152944468e-01 0.0000000000000000e+00 0.0000000000000000e+00  5.1478091979707508e-01 0.0000000000000000e+00 0.0000000000000000e+00  5.3009705738652635e-01 0.0000000000000000e+00 0.0000000000000000e+00  5.4562178056489630e-01 0.0000000000000000e+00 0.0000000000000000e+00  5.6135741908673498e-01 0.0000000000000000e+00 0.0000000000000000e+00  5.7730632642060520e-01 0.0000000000000000e+00 0.0000000000000000e+00  5.9347087997775172e-01 0.0000000000000000e+00 0.0000000000000000e+00  6.0985348134289985e-01 0.0000000000000000e+00 0.0000000000000000e+00  6.2645655650720056e-01 0.0000000000000000e+00 0.0000000000000000e+00  6.4328255610334362e-01 0.0000000000000000e+00 0.0000000000000000e+00  6.6033395564285258e-01 0.0000000000000000e+00 0.0000000000000000e+00  6.7761325575559950e-01 0.0000000000000000e+00 0.0000000000000000e+00  6.9512298243152637e-01 0.0000000000000000e+00 0.0000000000000000e+00  7.1286568726463273e-01 0.0000000000000000e+00 0.0000000000000000e+00  7.3084394769921424e-01 0.0000000000000000e+00 0.0000000000000000e+00  7.4906036727840342e-01 0.0000000000000000e+00 0.0000000000000000e+00  7.6751757589500669e-01 0.0000000000000000e+00 0.0000000000000000e+00  7.8621823004467717e-01 0.0000000000000000e+00 0.0000000000000000e+00  8.0516501308143784e-01 0.0000000000000000e+00 0.0000000000000000e+00  8.2436063547557292e-01 0.0000000000000000e+00 0.0000000000000000e+00  8.4380783507391388e-01 0.0000000000000000e+00 0.0000000000000000e+00  8.6350937736254540e-01 0.0000000000000000e+00 0.0000000000000000e+00  8.8346805573193776e-01 0.0000000000000000e+00 0.0000000000000000e+00  9.0368669174454885e-01 0.0000000000000000e+00 0.0000000000000000e+00  9.2416813540489928e-01 0.0000000000000000e+00 0.0000000000000000e+00  9.4491526543215520e-01 0.0000000000000000e+00 0.0000000000000000e+00  9.6593098953523648e-01 0.0000000000000000e+00 0.0000000000000000e+00  9.8721824469047159e-01 0.0000000000000000e+00 0.0000000000000000e+00  1.0087799974218292e+00 0.0000000000000000e+00 0.0000000000000000e+00  1.0306192440837418e+00 0.0000000000000000e+00 0.0000000000000000e+00  1.0527390111465469e+00 0.0000000000000000e+00 0.0000000000000000e+00  1.0751423554845758e+00 0.0000000000000000e+00 0.0000000000000000e+00  1.0978323646669028e+00 0.0000000000000000e+00 0.0000000000000000e+00  1.1208121572507912e+00 0.0000000000000000e+00 0.0000000000000000e+00  1.1440848830778452e+00 0.0000000000000000e+00 0.0000000000000000e+00  1.1676537235729139e+00 0.0000000000000000e+00 0.0000000000000000e+00  1.1915218920457462e+00 0.0000000000000000e+00 0.0000000000000000e+00  1.2156926339954459e+00 0.0000000000000000e+00 0.0000000000000000e+00  1.2401692274177309e+00 0.0000000000000000e+00 0.0000000000000000e+00  1.2649549831150395e+00 0.0000000000000000e+00 0.0000000000000000e+00  1.2900532450095035e+00 0.0000000000000000e+00 0.0000000000000000e+00  1.3154673904588026e+00 0.0000000000000000e+00 0.0000000000000000e+00  1.3412008305749441e+00 0.0000000000000000e+00 0.0000000000000000e+00  1.3672570105459896e+00 0.0000000000000000e+00 0.0000000000000000e+00  1.3936394099607392e+00 0.0000000000000000e+00 0.0000000000000000e+00  1.4203515431364242e+00 0.0000000000000000e+00 0.0000000000000000e+00  1.4473969594494216e+00 0.0000000000000000e+00 0.0000000000000000e+00  1.4747792436690177e+00 0.0000000000000000e+00 0.0000000000000000e+00  1.5025020162942435e+00 0.0000000000000000e+00 0.0000000000000000e+00  1.5305689338938360e+00 0.0000000000000000e+00 0.0000000000000000e+00  1.5589836894493168e+00 0.0000000000000000e+00 0.0000000000000000e+00  1.5877500127012398e+00 0.0000000000000000e+00 0.0000000000000000e+00  1.6168716704986288e+00 0.0000000000000000e+00 0.0000000000000000e+00  1.6463524671516363e+00 0.0000000000000000e+00 0.0000000000000000e+00  1.6761962447874554e+00 0.0000000000000000e+00 0.0000000000000000e+00  1.7064068837095012e+00 0.0000000000000000e+00 0.0000000000000000e+00  1.7369883027599091e+00 0.0000000000000000e+00 0.0000000000000000e+00  1.7679444596853626e+00 0.0000000000000000e+00 0.0000000000000000e+00  1.7992793515062981e+00 0.0000000000000000e+00 0.0000000000000000e+00  1.8309970148895003e+00 0.0000000000000000e+00 0.0000000000000000e+00  1.8631015265241286e+00 0.0000000000000000e+00 0.0000000000000000e+00  1.8955970035012073e+00 0.0000000000000000e+00 0.0000000000000000e+00  1.9284876036965974e+00 0.0000000000000000e+00 0.0000000000000000e+00  1.9617775261574995e+00 0.0000000000000000e+00 0.0000000000000000e+00  1.9954710114925096e+00 0.0000000000000000e+00 0.0000000000000000e+00  2.0295723422652525e+00 0.0000000000000000e+00 0.0000000000000000e+00  2.0640858433916391e+00 0.0000000000000000e+00 0.0000000000000000e+00  2.0990158825407850e+00 0.0000000000000000e+00 0.0000000000000000e+00  2.1343668705395871e+00 0.0000000000000000e+00 0.0000000000000000e+00  2.1701432617810390e+00 0.0000000000000000e+00 0.0000000000000000e+00  2.2063495546362897e+00 0.0000000000000000e+00 0.0000000000000000e+00  2.2429902918704854e+00 0.0000000000000000e+00 0.0000000000000000e+00  2.2800700610624247e+00 0.0000000000000000e+00 0.0000000000000000e+00  2.3175934950280688e+00 0.0000000000000000e+00 0.0000000000000000e+00  2.3555652722479494e+00 0.0000000000000000e+00 0.0000000000000000e+00  2.3939901172984772e+00 0.0000000000000000e+00 0.0000000000000000e+00  2.4328728012872234e+00 0.0000000000000000e+00 0.0000000000000000e+00  2.4722181422921845e+00 0.0000000000000000e+00 0.0000000000000000e+00  2.5120310058050865e+00 0.0000000000000000e+00 0.0000000000000000e+00  2.5523163051787319e+00 0.0000000000000000e+00 0.0000000000000000e+00  2.5930790020784795e+00 0.0000000000000000e+00 0.0000000000000000e+00  2.6343241069378247e+00 0.0000000000000000e+00 0.0000000000000000e+00  2.6760566794181915e+00 0.0000000000000000e+00 0.0000000000000000e+00  2.7182818288729007e+00 0.0000000000000000e+00 0.0000000000000000e+00  0.0000000000000000e+00 -7.8737741981241526e-03 0.0000000000000000e+00  7.9975257122960417e-03 -7.9975255448504912e-03 0.0000000000000000e+00  1.6120501347861547e-02 -8.1227335081329385e-03 0.0000000000000000e+00  2.4370403790261588e-02 -8.2494136153203109e-03 0.0000000000000000e+00  3.2748724393986302e-02 -8.3775812312562523e-03 0.0000000000000000e+00  4.1256970141901418e-02 -8.5072518755357190e-03 0.0000000000000000e+00  4.9896663706288182e-02 -8.6384412245321795e-03 0.0000000000000000e+00  5.8669343629930093e-02 -8.7711651162179684e-03 0.0000000000000000e+00  6.7576564491390323e-02 -8.9054395468406485e-03 0.0000000000000000e+00  7.6619897066355830e-02 -9.0412806713411845e-03 0.0000000000000000e+00  8.5800928489594794e-02 -9.1787048039964920e-03 0.0000000000000000e+00  9.5121262416962907e-02 -9.3177284194033341e-03 0.0000000000000000e+00  1.0458251918819499e-01 -9.4583681536915230e-03 0.0000000000000000e+00  1.1418633599076873e-01 -9.6006408058574664e-03 0.0000000000000000e+00  1.2393436702501055e-01 -9.7445633391784574e-03 0.0000000000000000e+00  1.3382828367056415e-01 -9.8901528826816892e-03 0.0000000000000000e+00  1.4386977465429870e-01 -1.0037426732652500e-02 0.0000000000000000e+00  1.5406054621971224e-01 -1.0186402354172956e-02 0.0000000000000000e+00  1.6440232229787080e-01 -1.0337097382685307e-02 0.0000000000000000e+00  1.7489684467991581e-01 -1.0489529625576730e-02 0.0000000000000000e+00  1.8554587319116542e-01 -1.0643717063782974e-02 0.0000000000000000e+00  1.9635118586683314e-01 -1.0799677853410045e-02 0.0000000000000000e+00  2.0731457912938356e-01 -1.0957430327372878e-02 0.0000000000000000e+00  2.1843786796754394e-01 -1.1116992997050195e-02 0.0000000000000000e+00  2.2972288611698971e-01 -1.1278384553955471e-02 0.0000000000000000e+00  2.4117148624272031e-01 -1.1441623871423895e-02 0.0000000000000000e+00  2.5278554012314286e-01 -1.1606730006314861e-02 0.0000000000000000e+00  2.6456693883587906e-01 -1.1773722200730858e-02 0.0000000000000000e+00  2.7651759294531214e-01 -1.1942619883751429e-02 0.0000000000000000e+00  2.8863943269189030e-01 -1.2113442673183591e-02 0.0000000000000000e+00  3.0093440818320188e-01 -1.2286210377328018e-02 0.0000000000000000e+00  3.1340448958683997e-01 -1.2460942996761619e-02 0.0000000000000000e+00  3.2605166732507107e-01 -1.2637660726135591e-02 0.0000000000000000e+00  3.3887795227132600e-01 -1.2816383955990869e-02 0.0000000000000000e+00  3.5188537594852792e-01 -1.2997133274589288e-02 0.0000000000000000e+00  3.6507599072927555e-01 -1.3179929469761532e-02 0.0000000000000000e+00  3.7845187003789782e-01 -1.3364793530772266e-02 0.0000000000000000e+00  3.9201510855439609e-01 -1.3551746650201429e-02 0.0000000000000000e+00  4.0576782242029341e-01 -1.3740810225843461e-02 0.0000000000000000e+00  4.1971214944640456e-01 -1.3932005862623019e-02 0.0000000000000000e+00  4.3385024932254784e-01 -1.4125355374528805e-02 0.0000000000000000e+00  4.4818430382921387e-01 -1.4320880786563956e-02 0.0000000000000000e+00  4.6271651705120986e-01 -1.4518604336715280e-02 0.0000000000000000e+00  4.7744911559329734e-01 -1.4718548477939313e-02 0.0000000000000000e+00  4.9238434879784138e-01 -1.4920735880167312e-02 0.0000000000000000e+00  5.0752448896448887e-01 -1.5125189432327660e-02 0.0000000000000000e+00  5.2287183157189576e-01 -1.5331932244387052e-02 0.0000000000000000e+00  5.3842869550152017e-01 -1.5540987649410205e-02 0.0000000000000000e+00  5.5419742326350074e-01 -1.5752379205637986e-02 0.0000000000000000e+00  5.7018038122463988e-01 -1.5966130698584966e-02 0.0000000000000000e+00  5.8637995983850943e-01 -1.6182266143155002e-02 0.0000000000000000e+00  6.0279857387769997e-01 -1.6400809785777085e-02 0.0000000000000000e+00  6.1943866266823078e-01 -1.6621786106560101e-02 0.0000000000000000e+00  6.3630269032614239e-01 -1.6845219821466858e-02 0.0000000000000000e+00  6.5339314599629073e-01 -1.7071135884508544e-02 0.0000000000000000e+00  6.7071254409336112e-01 -1.7299559489958108e-02 0.0000000000000000e+00  6.8826342454512646e-01 -1.7530516074585396e-02 0.0000000000000000e+00  7.0604835303796343e-01 -1.7764031319910233e-02 0.0000000000000000e+00  7.2406992126465619e-01 -1.8000131154477489e-02 0.0000000000000000e+00  7.4233074717449798e-01 -1.8238841756153670e-02 0.0000000000000000e+00  7.6083347522572076e-01 -1.8480189554441414e-02 0.0000000000000000e+00  7.7958077664026804e-01 -1.8724201232817955e-02 0.0000000000000000e+00  7.9857534966093446e-01 -1.8970903731093620e-02 0.0000000000000000e+00  8.1781991981089419e-01 -1.9220324247790747e-02 0.0000000000000000e+00  8.3731724015563747e-01 -1.9472490242546020e-02 0.0000000000000000e+00  8.5707009156734071e-01 -1.9727429438533589e-02 0.0000000000000000e+00  8.7708128299168853e-01 -1.9985169824910179e-02 0.0000000000000000e+00  8.9735365171717252e-01 -2.0245739659282579e-02 0.0000000000000000e+00  9.1789006364688852e-01 -2.0509167470197268e-02 0.0000000000000000e+00  9.3869341357285552e-01 -2.0775482059653332e-02 0.0000000000000000e+00  9.5976662545287716e-01 -2.1044712505637032e-02 0.0000000000000000e+00  9.8111265268997294e-01 -2.1316888164680942e-02 0.0000000000000000e+00  1.0027344784143979e+00 -2.1592038674444394e-02 0.0000000000000000e+00  1.0246351157682774e+00 -2.1870193956318781e-02 0.0000000000000000e+00  1.0468176081928808e+00 -2.2151384218056347e-02 0.0000000000000000e+00  1.0692850297185552e+00 -2.2435639956422102e-02 0.0000000000000000e+00  1.0920404852573478e+00 -2.2722991959870518e-02 0.0000000000000000e+00  1.1150871108983365e+00 -2.3013471311246106e-02 0.0000000000000000e+00  1.1384280742056991e+00 -2.3307109390508923e-02 0.0000000000000000e+00  1.1620665745195395e+00 -2.3603937877484178e-02 0.0000000000000000e+00  1.1860058432595026e+00 -2.3903988754637402e-02 0.0000000000000000e+00  1.2102491442311976e+00 -2.4207294309875137e-02 0.0000000000000000e+00  1.2347997739354593e+00 -2.4513887139369153e-02 0.0000000000000000e+00  1.2596610618804729e+00 -2.4823800150409105e-02 0.0000000000000000e+00  1.2848363708967847e+00 -2.5137066564279120e-02 0.0000000000000000e+00  1.3103290974552311e+00 -2.5453719919160928e-02 0.0000000000000000e+00  1.3361426719878060e+00 -2.5773794073063586e-02 0.0000000000000000e+00  1.3622805592115006e+00 -2.6097323206780418e-02 0.0000000000000000e+00  1.3887462584551358e+00 -2.6424341826871589e-02 0.0000000000000000e+00  1.4155433039892193e+00 -2.6754884768674079e-02 0.0000000000000000e+00  1.4426752653588537e+00 -2.7088987199340938e-02 0.0000000000000000e+00  1.4701457477197235e+00 -2.7426684620905282e-02 0.0000000000000000e+00  1.4979583921771891e+00 -2.7768012873373257e-02 0.0000000000000000e+00  1.5261168761285175e+00 -2.8113008137847516e-02 0.0000000000000000e+00  1.5546249136082764e+00 -2.8461706939675889e-02 0.0000000000000000e+00  1.5834862556369236e+00 -2.8814146151629833e-02 0.0000000000000000e+00  1.6127046905726197e+00 -2.9170362997113657e-02 0.0000000000000000e+00  1.6422840444662927e+00 -2.9530395053400028e-02 0.0000000000000000e+00  1.6722281814199889e+00 -2.9894280254898046e-02 0.0000000000000000e+00  1.7025410039485347e+00 -3.0262056896449334e-02 0.0000000000000000e+00  1.7332264533445467e+00 -3.0633763636655872e-02 0.0000000000000000e+00  1.7642885100468160e+00 -3.1009439501237350e-02 0.0000000000000000e+00  1.7957311940121015e+00 -3.1389123886419817e-02 0.0000000000000000e+00  1.8275585650903636e+00 -3.1772856562357656e-02 0.0000000000000000e+00  1.8597747234034727e+00 -3.2160677676581907e-02 0.0000000000000000e+00  1.8923838097274206e+00 -3.2552627757488295e-02 0.0000000000000000e+00  1.9253900058780753e+00 -3.2948747717852452e-02 0.0000000000000000e+00  1.9587975351005096e+00 -3.3349078858380808e-02 0.0000000000000000e+00  1.9926106624619389e+00 -3.3753662871292722e-02 0.0000000000000000e+00  2.0268336952483041e+00 -3.4162541843940693e-02 0.0000000000000000e+00  2.0614709833645368e+00 -3.4575758262461447e-02 0.0000000000000000e+00  2.0965269197385425e+00 -3.4993355015465584e-02 0.0000000000000000e+00  2.1320059407289387e+00 -3.5415375397760081e-02 0.0000000000000000e+00  2.1679125265365888e+00 -3.5841863114110771e-02 0.0000000000000000e+00  2.2042512016199645e+00 -3.6272862283037645e-02 0.0000000000000000e+00  2.2410265351143814e+00 -3.6708417440653375e-02 0.0000000000000000e+00  2.2782431412551301e+00 -3.7148573544532250e-02 0.0000000000000000e+00  2.3159056798045596e+00 -3.7593375977624674e-02 0.0000000000000000e+00  2.3540188564831137e+00 -3.8042870552206377e-02 0.0000000000000000e+00  2.3925874234043394e+00 -3.8497103513885696e-02 0.0000000000000000e+00  2.4316161795140259e+00 -3.8956121545669943e-02 0.0000000000000000e+00  2.4711099710339379e+00 -3.9419971772137664e-02 0.0000000000000000e+00  2.5110736919033081e+00 -3.9888701765571320e-02 0.0000000000000000e+00  2.5515122842625573e+00 -4.0362359546321641e-02 0.0000000000000000e+00  2.5924307388394974e+00 -4.0840993614037938e-02 0.0000000000000000e+00  2.6338340953117414e+00 -4.1324652996743316e-02 0.0000000000000000e+00  2.6757274448280848e+00 -4.1813386990699281e-02 0.0000000000000000e+00  2.7181159213489621e+00 -4.2307245938967196e-02 0.0000000000000000e+00  2.7610047148154244e+00 -4.2806274648301154e-02 0.0000000000000000e+00  0.0000000000000000e+00 -1.5871057949083327e-02 0.0000000000000000e+00  8.1227336710236932e-03 -1.6120501206519183e-02 0.0000000000000000e+00  1.6372881332197102e-02 -1.6372881170476528e-02 0.0000000000000000e+00  2.4751943069893180e-02 -1.6628228670220669e-02 0.0000000000000000e+00  3.3261433628427775e-02 -1.6886574600875812e-02 0.0000000000000000e+00  4.1902883642617406e-02 -1.7147950205315485e-02 0.0000000000000000e+00  5.0677839645905935e-02 -1.7412387063799946e-02 0.0000000000000000e+00  5.9587864285125330e-02 -1.7679917086016468e-02 0.0000000000000000e+00  6.8634536482422653e-02 -1.7950572506054776e-02 0.0000000000000000e+00  7.7819451603822351e-02 -1.8224385881268446e-02 0.0000000000000000e+00  8.7144221625733195e-02 -1.8501390092370378e-02 0.0000000000000000e+00  9.6610475301041276e-02 -1.8781618344724089e-02 0.0000000000000000e+00  1.0621985832562102e-01 -1.9065104170288054e-02 0.0000000000000000e+00  1.1597403350557640e-01 -1.9351881429975657e-02 0.0000000000000000e+00  1.2587468092550819e-01 -1.9641984316286023e-02 0.0000000000000000e+00  1.3592349811799279e-01 -1.9935447356115604e-02 0.0000000000000000e+00  1.4612220023440112e-01 -2.0232305413696434e-02 0.0000000000000000e+00  1.5647252021714855e-01 -2.0532593693627286e-02 0.0000000000000000e+00  1.6697620897344234e-01 -2.0836347743976434e-02 0.0000000000000000e+00  1.7763503555057691e-01 -2.1143603459442144e-02 0.0000000000000000e+00  1.8845078731281617e-01 -2.1454397084562052e-02 0.0000000000000000e+00  1.9942527011989500e-01 -2.1768765216965604e-02 0.0000000000000000e+00  2.1056030850716700e-01 -2.2086744810665766e-02 0.0000000000000000e+00  2.2185774586742224e-01 -2.2408373179387212e-02 0.0000000000000000e