<?xml version="1.0"?>
<VTKFile type="UnstructuredGrid"  version="0.1"  >
<UnstructuredGrid>
<Piece  NumberOfPoints="81" NumberOfCells="128">
<Points>
<DataArray  type="Float64"  NumberOfComponents="3"  format="ascii">0 0 0  0.125 0 0  0.25 0 0  0.375 0 0  0.5 0 0  0.625 0 0  0.75 0 0  0.875 0 0  1 0 0  0 0.125 0  0.125 0.125 0  0.25 0.125 0  0.375 0.125 0  0.5 0.125 0  0.625 0.125 0  0.75 0.125 0  0.875 0.125 0  1 0.125 0  0 0.25 0  0.125 0.25 0  0.25 0.25 0  0.375 0.25 0  0.5 0.25 0  0.625 0.25 0  0.75 0.25 0  0.875 0.25 0  1 0.25 0  0 0.375 0  0.125 0.375 0  0.25 0.375 0  0.375 0.375 0  0.5 0.375 0  0.625 0.375 0  0.75 0.375 0  0.875 0.375 0  1 0.375 0  0 0.5 0  0.125 0.5 0  0.25 0.5 0  0.375 0.5 0  0.5 0.5 0  0.625 0.5 0  0.75 0.5 0  0.875 0.5 0  1 0.5 0  0 0.625 0  0.125 0.625 0  0.25 0.625 0  0.375 0.625 0  0.5 0.625 0  0.625 0.625 0  0.75 0.625 0  0.875 0.625 0  1 0.625 0  0 0.75 0  0.125 0.75 0  0.25 0.75 0  0.375 0.75 0  0.5 0.75 0  0.625 0.75 0  0.75 0.75 0  0.875 0.75 0  1 0.75 0  0 0.875 0  0.125 0.875 0  0.25 0.875 0  0.375 0.875 0  0.5 0.875 0  0.625 0.875 0  0.75 0.875 0  0.875 0.875 0  1 0.875 0  0 1 0  0.125 1 0  0.25 1 0  0.375 1 0  0.5 1 0  0.625 1 0  0.75 1 0  0.875 1 0  1 1 0  </DataArray>
</Points>
<Cells>
<DataArray  type="UInt32"  Name="connectivity"  format="ascii">0 1 10  0 9 10  1 2 11  1 10 11  2 3 12  2 11 12  3 4 13  3 12 13  4 5 14  4 13 14  5 6 15  5 14 15  6 7 16  6 15 16  7 8 17  7 16 17  9 10 19  9 18 19  10 11 20  10 19 20  11 12 21  11 20 21  12 13 22  12 21 22  13 14 23  13 22 23  14 15 24  14 23 24  15 16 25  15 24 25  16 17 26  16 25 26  18 19 28  18 27 28  19 20 29  19 28 29  20 21 30  20 29 30  21 22 31  21 30 31  22 23 32  22 31 32  23 24 33  23 32 33  24 25 34  24 33 34  25 26 35  25 34 35  27 28 37  27 36 37  28 29 38  28 37 38  29 30 39  29 38 39  30 31 40  30 39 40  31 32 41  31 40 41  32 33 42  32 41 42  33 34 43  33 42 43  34 35 44  34 43 44  36 37 46  36 45 46  37 38 47  37 46 47  38 39 48  38 47 48  39 40 49  39 48 49  40 41 50  40 49 50  41 42 51  41 50 51  42 43 52  42 51 52  43 44 53  43 52 53  45 46 55  45 54 55  46 47 56  46 55 56  47 48 57  47 56 57  48 49 58  48 57 58  49 50 59  49 58 59  50 51 60  50 59 60  51 52 61  51 60 61  52 53 62  52 61 62  54 55 64  54 63 64  55 56 65  55 64 65  56 57 66  56 65 66  57 58 67  57 66 67  58 59 68  58 67 68  59 60 69  59 68 69  60 61 70  60 69 70  61 62 71  61 70 71  63 64 73  63 72 73  64 65 74  64 73 74  65 66 75  65 74 75  66 67 76  66 75 76  67 68 77  67 76 77  68 69 78  68 77 78  69 70 79  69 78 79  70 71 80  70 79 80  </DataArray>
<DataArray  type="UInt32"  Name="offsets"  format="ascii">3 6 9 12 15 18 21 24 27 30 33 36 39 42 45 48 51 54 57 60 63 66 69 72 75 78 81 84 87 90 93 96 99 102 105 108 111 114 117 120 123 126 129 132 135 138 141 144 147 150 153 156 159 162 165 168 171 174 177 180 183 186 189 192 195 198 201 204 207 210 213 216 219 222 225 228 231 234 237 240 243 246 249 252 255 258 261 264 267 270 273 276 279 282 285 288 291 294 297 300 303 306 309 312 315 318 321 324 327 330 333 336 339 342 345 348 351 354 357 360 363 366 369 372 375 378 381 384 </DataArray>
<DataArray  type="UInt8"  Name="types"  format="ascii">5 5 5 5 5 5 5 5 5 5 5 5 5 5 5 5 5 5 5 5 5 5 5 5 5 5 5 5 5 5 5 5 5 5 5 5 5 5 5 5 5 5 5 5 5 5 5 5 5 5 5 5 5 5 5 5 5 5 5 5 5 5 5 5 5 5 5 5 5 5 5 5 5 5 5 5 5 5 5 5 5 5 5 5 5 5 5 5 5 5 5 5 5 5 5 5 5 5 5 5 5 5 5 5 5 5 5 5 5 5 5 5 5 5 5 5 5 5 5 5 5 5 5 5 5 5 5 5 </DataArray>
</Cells>
<PointData  Vectors="f_1119"> 
<DataArray  type="Float64"  Name="f_1119"  NumberOfComponents="3" format="ascii">0.0000000000000000e+00 0.0000000000000000e+00 0.0000000000000000e+00  1.4164355663227995e-01 0.0000000000000000e+00 0.0000000000000000e+00  3.2100635416950274e-01 0.0000000000000000e+00 0.0000000000000000e+00  5.4562178047769094e-01 0.0000000000000000e+00 0.0000000000000000e+00  8.2436063534381743e-01 0.0000000000000000e+00 0.0000000000000000e+00  1.1676537233862909e+00 0.0000000000000000e+00 0.0000000000000000e+00  1.5877500124474744e+00 0.0000000000000000e+00 0.0000000000000000e+00  2.0990158822053053e+00 0.0000000000000000e+00 0.0000000000000000e+00  2.7182818284384478e+00 0.0000000000000000e+00 0.0000000000000000e+00  0.0000000000000000e+00 -1.4164355663227995e-01 0.0000000000000000e+00  1.5037307220802015e-02 -3.3925888322995623e-01 0.0000000000000000e+00  2.8038809040144536e-01 -4.4011926856350225e-01 0.0000000000000000e+00  5.7677513648783341e-01 -5.0072739165658886e-01 0.0000000000000000e+00  9.4608898607239866e-01 -5.5074986405193571e-01 0.0000000000000000e+00  1.3927241678621214e+00 -5.9418052659275833e-01 0.0000000000000000e+00  1.9533506724380088e+00 -6.3485061234425200e-01 0.0000000000000000e+00  2.5865791822887680e+00 -6.7911991188959486e-01 0.0000000000000000e+00  3.4652439550065268e+00 -7.7005421222367221e-01 0.0000000000000000e+00  0.0000000000000000e+00 -3.2100635416950274e-01 0.0000000000000000e+00  -2.2685857727566983e-02 -5.3591886115731691e-01 0.0000000000000000e+00  3.1162205274812327e-01 -6.8059986372544423e-01 0.0000000000000000e+00  6.5596549449536490e-01 -8.1051177800902052e-01 0.0000000000000000e+00  1.1113479263761672e+00 -9.5125829806855555e-01 0.0000000000000000e+00  1.6703365908086378e+00 -1.1086189219366773e+00 0.0000000000000000e+00  2.3873273294413608e+00 -1.2854420603844825e+00 0.0000000000000000e+00  3.1821839548055362e+00 -1.4871266880107914e+00 0.0000000000000000e+00  4.3629286967942402e+00 -1.7451714787176960e+00 0.0000000000000000e+00  0.0000000000000000e+00 -5.4562178047769094e-01 0.0000000000000000e+00  -1.5964515916542299e-02 -8.0302780749348535e-01 0.0000000000000000e+00  3.8479947297851558e-01 -1.0316165783257540e+00 0.0000000000000000e+00  7.8689125677245519e-01 -1.2644668611580199e+00 0.0000000000000000e+00  1.3358087049004421e+00 -1.5242855815895835e+00 0.0000000000000000e+00  2.0172013142105327e+00 -1.8226054555759583e+00 0.0000000000000000e+00  2.9098665821434198e+00 -2.1635051777676351e+00 0.0000000000000000e+00  3.8930159744491202e+00 -2.5409907410350683e+00 0.0000000000000000e+00  5.4382304939745802e+00 -2.9663075421679541e+00 0.0000000000000000e+00  0.0000000000000000e+00 -8.2436063534381743e-01 0.0000000000000000e+00  2.2572577850151654e-02 -1.1245352583180888e+00 0.0000000000000000e+00  5.0092235642281258e-01 -1.4352005003953023e+00 0.0000000000000000e+00  9.8504189861141134e-01 -1.7838199685994620e+00 0.0000000000000000e+00  1.6451604335897354e+00 -2.1907756584120714e+00 0.0000000000000000e+00  2.4675927288977952e+00 -2.6704559388955955e+00 0.0000000000000000e+00  3.5548632757410830e+00 -3.2296298595695050e+00 0.0000000000000000e+00  4.7566883911548770e+00 -3.8440091832179060e+00 0.0000000000000000e+00  6.7225336054561566e+00 -4.4816890703041041e+00 0.0000000000000000e+00  0.0000000000000000e+00 -1.1676537233862909e+00 0.0000000000000000e+00  1.0562471258072748e-01 -1.5179894456243233e+00 0.0000000000000000e+00  6.7958766129715209e-01 -1.9289810881594347e+00 0.0000000000000000e+00  1.2778903696379222e+00 -2.4190505931352915e+00 0.0000000000000000e+00  2.0789732839770352e+00 -3.0046926484893790e+00 0.0000000000000000e+00  3.0729820401853645e+00 -3.7052378100656940e+00 0.0000000000000000e+00  4.3777184795330806e+00 -4.5325840363673100e+00 0.0000000000000000e+00  5.8367767425281949e+00 -5.4488285541119561e+00 0.0000000000000000e+00  8.2524309353550951e+00 -6.3480237964269994e+00 0.0000000000000000e+00  0.0000000000000000e+00 -1.5877500124474744e+00 0.0000000000000000e+00  2.4985818954422356e-01 -2.0157175395695570e+00 0.0000000000000000e+00  9.4245600612566760e-01 -2.5486680699902409e+00 0.0000000000000000e+00  1.6996680164616658e+00 -3.2019872112304961e+00 0.0000000000000000e+00  2.6861053501444947e+00 -3.9874098314115538e+00 0.0000000000000000e+00  3.9021302612636708e+00 -4.9319862713190901e+00 0.0000000000000000e+00  5.4514708501285796e+00 -6.0660530431145210e+00 0.0000000000000000e+00  7.2148473576081553e+00 -7.3769047500745142e+00 0.0000000000000000e+00  1.0070554682933725e+01 -8.6319040139431849e+00 0.0000000000000000e+00  0.0000000000000000e+00 -2.0990158822053053e+00 0.0000000000000000e+00  4.6213191921977226e-01 -2.6147266889464253e+00 0.0000000000000000e+00  1.3028865372812424e+00 -3.3154456466213347e+00 0.0000000000000000e+00  2.2654470027479907e+00 -4.1738806688336156e+00 0.0000000000000000e+00  3.4908556400320316e+00 -5.2129912290267226e+00 0.0000000000000000e+00  4.9930401785213201e+00 -6.4661961292867982e+00 0.0000000000000000e+00  6.8448614636574323e+00 -7.9772977287992717e+00 0.0000000000000000e+00  9.0342346643198077e+00 -9.7571717189779097e+00 0.0000000000000000e+00  1.2226535850526314e+01 -1.1411433460491221e+01 0.0000000000000000e+00  0.0000000000000000e+00 -2.7182818284384478e+00 0.0000000000000000e+00  7.7005421222367221e-01 -3.4652439550065268e+00 0.0000000000000000e+00  1.7451714787176960e+00 -4.3629286967942402e+00 0.0000000000000000e+00  2.9663075421679541e+00 -5.4382304939745802e+00 0.0000000000000000e+00  4.4816890703041041e+00 -6.7225336054561566e+00 0.0000000000000000e+00  6.3480237964269994e+00 -8.2524309353550951e+00 0.0000000000000000e+00  8.6319040139431849e+00 -1.0070554682933725e+01 0.0000000000000000e+00  1.1411433460491221e+01 -1.2226535850526314e+01 0.0000000000000000e+00  1.4778112197749323e+01 -1.4778112197749323e+01 0.0000000000000000e+00  </DataArray> 
</PointData> 
</Piece>
</UnstructuredGrid>
</VTKFile>