<?xml version="1.0"?>
<VTKFile type="UnstructuredGrid"  version="0.1"  >
<UnstructuredGrid>
<Piece  NumberOfPoints="4225" NumberOfCells="8192">
<Points>
<DataArray  type="Float64"  NumberOfComponents="3"  format="ascii">0 0 0  0.015625 0 0  0.03125 0 0  0.046875 0 0  0.0625 0 0  0.078125 0 0  0.09375 0 0  0.109375 0 0  0.125 0 0  0.140625 0 0  0.15625 0 0  0.171875 0 0  0.1875 0 0  0.203125 0 0  0.21875 0 0  0.234375 0 0  0.25 0 0  0.265625 0 0  0.28125 0 0  0.296875 0 0  0.3125 0 0  0.328125 0 0  0.34375 0 0  0.359375 0 0  0.375 0 0  0.390625 0 0  0.40625 0 0  0.421875 0 0  0.4375 0 0  0.453125 0 0  0.46875 0 0  0.484375 0 0  0.5 0 0  0.515625 0 0  0.53125 0 0  0.546875 0 0  0.5625 0 0  0.578125 0 0  0.59375 0 0  0.609375 0 0  0.625 0 0  0.640625 0 0  0.65625 0 0  0.671875 0 0  0.6875 0 0  0.703125 0 0  0.71875 0 0  0.734375 0 0  0.75 0 0  0.765625 0 0  0.78125 0 0  0.796875 0 0  0.8125 0 0  0.828125 0 0  0.84375 0 0  0.859375 0 0  0.875 0 0  0.890625 0 0  0.90625 0 0  0.921875 0 0  0.9375 0 0  0.953125 0 0  0.96875 0 0  0.984375 0 0  1 0 0  0 0.015625 0  0.015625 0.015625 0  0.03125 0.015625 0  0.046875 0.015625 0  0.0625 0.015625 0  0.078125 0.015625 0  0.09375 0.015625 0  0.109375 0.015625 0  0.125 0.015625 0  0.140625 0.015625 0  0.15625 0.015625 0  0.171875 0.015625 0  0.1875 0.015625 0  0.203125 0.015625 0  0.21875 0.015625 0  0.234375 0.015625 0  0.25 0.015625 0  0.265625 0.015625 0  0.28125 0.015625 0  0.296875 0.015625 0  0.3125 0.015625 0  0.328125 0.015625 0  0.34375 0.015625 0  0.359375 0.015625 0  0.375 0.015625 0  0.390625 0.015625 0  0.40625 0.015625 0  0.421875 0.015625 0  0.4375 0.015625 0  0.453125 0.015625 0  0.46875 0.015625 0  0.484375 0.015625 0  0.5 0.015625 0  0.515625 0.015625 0  0.53125 0.015625 0  0.546875 0.015625 0  0.5625 0.015625 0  0.578125 0.015625 0  0.59375 0.015625 0  0.609375 0.015625 0  0.625 0.015625 0  0.640625 0.015625 0  0.65625 0.015625 0  0.671875 0.015625 0  0.6875 0.015625 0  0.703125 0.015625 0  0.71875 0.015625 0  0.734375 0.015625 0  0.75 0.015625 0  0.765625 0.015625 0  0.78125 0.015625 0  0.796875 0.015625 0  0.8125 0.015625 0  0.828125 0.015625 0  0.84375 0.015625 0  0.859375 0.015625 0  0.875 0.015625 0  0.890625 0.015625 0  0.90625 0.015625 0  0.921875 0.015625 0  0.9375 0.015625 0  0.953125 0.015625 0  0.96875 0.015625 0  0.984375 0.015625 0  1 0.015625 0  0 0.03125 0  0.015625 0.03125 0  0.03125 0.03125 0  0.046875 0.03125 0  0.0625 0.03125 0  0.078125 0.03125 0  0.09375 0.03125 0  0.109375 0.03125 0  0.125 0.03125 0  0.140625 0.03125 0  0.15625 0.03125 0  0.171875 0.03125 0  0.1875 0.03125 0  0.203125 0.03125 0  0.21875 0.03125 0  0.234375 0.03125 0  0.25 0.03125 0  0.265625 0.03125 0  0.28125 0.03125 0  0.296875 0.03125 0  0.3125 0.03125 0  0.328125 0.03125 0  0.34375 0.03125 0  0.359375 0.03125 0  0.375 0.03125 0  0.390625 0.03125 0  0.40625 0.03125 0  0.421875 0.03125 0  0.4375 0.03125 0  0.453125 0.03125 0  0.46875 0.03125 0  0.484375 0.03125 0  0.5 0.03125 0  0.515625 0.03125 0  0.53125 0.03125 0  0.546875 0.03125 0  0.5625 0.03125 0  0.578125 0.03125 0  0.59375 0.03125 0  0.609375 0.03125 0  0.625 0.03125 0  0.640625 0.03125 0  0.65625 0.03125 0  0.671875 0.03125 0  0.6875 0.03125 0  0.703125 0.03125 0  0.71875 0.03125 0  0.734375 0.03125 0  0.75 0.03125 0  0.765625 0.03125 0  0.78125 0.03125 0  0.796875 0.03125 0  0.8125 0.03125 0  0.828125 0.03125 0  0.84375 0.03125 0  0.859375 0.03125 0  0.875 0.03125 0  0.890625 0.03125 0  0.90625 0.03125 0  0.921875 0.03125 0  0.9375 0.03125 0  0.953125 0.03125 0  0.96875 0.03125 0  0.984375 0.03125 0  1 0.03125 0  0 0.046875 0  0.015625 0.046875 0  0.03125 0.046875 0  0.046875 0.046875 0  0.0625 0.046875 0  0.078125 0.046875 0  0.09375 0.046875 0  0.109375 0.046875 0  0.125 0.046875 0  0.140625 0.046875 0  0.15625 0.046875 0  0.171875 0.046875 0  0.1875 0.046875 0  0.203125 0.046875 0  0.21875 0.046875 0  0.234375 0.046875 0  0.25 0.046875 0  0.265625 0.046875 0  0.28125 0.046875 0  0.296875 0.046875 0  0.3125 0.046875 0  0.328125 0.046875 0  0.34375 0.046875 0  0.359375 0.046875 0  0.375 0.046875 0  0.390625 0.046875 0  0.40625 0.046875 0  0.421875 0.046875 0  0.4375 0.046875 0  0.453125 0.046875 0  0.46875 0.046875 0  0.484375 0.046875 0  0.5 0.046875 0  0.515625 0.046875 0  0.53125 0.046875 0  0.546875 0.046875 0  0.5625 0.046875 0  0.578125 0.046875 0  0.59375 0.046875 0  0.609375 0.046875 0  0.625 0.046875 0  0.640625 0.046875 0  0.65625 0.046875 0  0.671875 0.046875 0  0.6875 0.046875 0  0.703125 0.046875 0  0.71875 0.046875 0  0.734375 0.046875 0  0.75 0.046875 0  0.765625 0.046875 0  0.78125 0.046875 0  0.796875 0.046875 0  0.8125 0.046875 0  0.828125 0.046875 0  0.84375 0.046875 0  0.859375 0.046875 0  0.875 0.046875 0  0.890625 0.046875 0  0.90625 0.046875 0  0.921875 0.046875 0  0.9375 0.046875 0  0.953125 0.046875 0  0.96875 0.046875 0  0.984375 0.046875 0  1 0.046875 0  0 0.0625 0  0.015625 0.0625 0  0.03125 0.0625 0  0.046875 0.0625 0  0.0625 0.0625 0  0.078125 0.0625 0  0.09375 0.0625 0  0.109375 0.0625 0  0.125 0.0625 0  0.140625 0.0625 0  0.15625 0.0625 0  0.171875 0.0625 0  0.1875 0.0625 0  0.203125 0.0625 0  0.21875 0.0625 0  0.234375 0.0625 0  0.25 0.0625 0  0.265625 0.0625 0  0.28125 0.0625 0  0.296875 0.0625 0  0.3125 0.0625 0  0.328125 0.0625 0  0.34375 0.0625 0  0.359375 0.0625 0  0.375 0.0625 0  0.390625 0.0625 0  0.40625 0.0625 0  0.421875 0.0625 0  0.4375 0.0625 0  0.453125 0.0625 0  0.46875 0.0625 0  0.484375 0.0625 0  0.5 0.0625 0  0.515625 0.0625 0  0.53125 0.0625 0  0.546875 0.0625 0  0.5625 0.0625 0  0.578125 0.0625 0  0.59375 0.0625 0  0.609375 0.0625 0  0.625 0.0625 0  0.640625 0.0625 0  0.65625 0.0625 0  0.671875 0.0625 0  0.6875 0.0625 0  0.703125 0.0625 0  0.71875 0.0625 0  0.734375 0.0625 0  0.75 0.0625 0  0.765625 0.0625 0  0.78125 0.0625 0  0.796875 0.0625 0  0.8125 0.0625 0  0.828125 0.0625 0  0.84375 0.0625 0  0.859375 0.0625 0  0.875 0.0625 0  0.890625 0.0625 0  0.90625 0.0625 0  0.921875 0.0625 0  0.9375 0.0625 0  0.953125 0.0625 0  0.96875 0.0625 0  0.984375 0.0625 0  1 0.0625 0  0 0.078125 0  0.015625 0.078125 0  0.03125 0.078125 0  0.046875 0.078125 0  0.0625 0.078125 0  0.078125 0.078125 0  0.09375 0.078125 0  0.109375 0.078125 0  0.125 0.078125 0  0.140625 0.078125 0  0.15625 0.078125 0  0.171875 0.078125 0  0.1875 0.078125 0  0.203125 0.078125 0  0.21875 0.078125 0  0.234375 0.078125 0  0.25 0.078125 0  0.265625 0.078125 0  0.28125 0.078125 0  0.296875 0.078125 0  0.3125 0.078125 0  0.328125 0.078125 0  0.34375 0.078125 0  0.359375 0.078125 0  0.375 0.078125 0  0.390625 0.078125 0  0.40625 0.078125 0  0.421875 0.078125 0  0.4375 0.078125 0  0.453125 0.078125 0  0.46875 0.078125 0  0.484375 0.078125 0  0.5 0.078125 0  0.515625 0.078125 0  0.53125 0.078125 0  0.546875 0.078125 0  0.5625 0.078125 0  0.578125 0.078125 0  0.59375 0.078125 0  0.609375 0.078125 0  0.625 0.078125 0  0.640625 0.078125 0  0.65625 0.078125 0  0.671875 0.078125 0  0.6875 0.078125 0  0.703125 0.078125 0  0.71875 0.078125 0  0.734375 0.078125 0  0.75 0.078125 0  0.765625 0.078125 0  0.78125 0.078125 0  0.796875 0.078125 0  0.8125 0.078125 0  0.828125 0.078125 0  0.84375 0.078125 0  0.859375 0.078125 0  0.875 0.078125 0  0.890625 0.078125 0  0.90625 0.078125 0  0.921875 0.078125 0  0.9375 0.078125 0  0.953125 0.078125 0  0.96875 0.078125 0  0.984375 0.078125 0  1 0.078125 0  0 0.09375 0  0.015625 0.09375 0  0.03125 0.09375 0  0.046875 0.09375 0  0.0625 0.09375 0  0.078125 0.09375 0  0.09375 0.09375 0  0.109375 0.09375 0  0.125 0.09375 0  0.140625 0.09375 0  0.15625 0.09375 0  0.171875 0.09375 0  0.1875 0.09375 0  0.203125 0.09375 0  0.21875 0.09375 0  0.234375 0.09375 0  0.25 0.09375 0  0.265625 0.09375 0  0.28125 0.09375 0  0.296875 0.09375 0  0.3125 0.09375 0  0.328125 0.09375 0  0.34375 0.09375 0  0.359375 0.09375 0  0.375 0.09375 0  0.390625 0.09375 0  0.40625 0.09375 0  0.421875 0.09375 0  0.4375 0.09375 0  0.453125 0.09375 0  0.46875 0.09375 0  0.484375 0.09375 0  0.5 0.09375 0  0.515625 0.09375 0  0.53125 0.09375 0  0.546875 0.09375 0  0.5625 0.09375 0  0.578125 0.09375 0  0.59375 0.09375 0  0.609375 0.09375 0  0.625 0.09375 0  0.640625 0.09375 0  0.65625 0.09375 0  0.671875 0.09375 0  0.6875 0.09375 0  0.703125 0.09375 0  0.71875 0.09375 0  0.734375 0.09375 0  0.75 0.09375 0  0.765625 0.09375 0  0.78125 0.09375 0  0.796875 0.09375 0  0.8125 0.09375 0  0.828125 0.09375 0  0.84375 0.09375 0  0.859375 0.09375 0  0.875 0.09375 0  0.890625 0.09375 0  0.90625 0.09375 0  0.921875 0.09375 0  0.9375 0.09375 0  0.953125 0.09375 0  0.96875 0.09375 0  0.984375 0.09375 0  1 0.09375 0  0 0.109375 0  0.015625 0.109375 0  0.03125 0.109375 0  0.046875 0.109375 0  0.0625 0.109375 0  0.078125 0.109375 0  0.09375 0.109375 0  0.109375 0.109375 0  0.125 0.109375 0  0.140625 0.109375 0  0.15625 0.109375 0  0.171875 0.109375 0  0.1875 0.109375 0  0.203125 0.109375 0  0.21875 0.109375 0  0.234375 0.109375 0  0.25 0.109375 0  0.265625 0.109375 0  0.28125 0.109375 0  0.296875 0.109375 0  0.3125 0.109375 0  0.328125 0.109375 0  0.34375 0.109375 0  0.359375 0.109375 0  0.375 0.109375 0  0.390625 0.109375 0  0.40625 0.109375 0  0.421875 0.109375 0  0.4375 0.109375 0  0.453125 0.109375 0  0.46875 0.109375 0  0.484375 0.109375 0  0.5 0.109375 0  0.515625 0.109375 0  0.53125 0.109375 0  0.546875 0.109375 0  0.5625 0.109375 0  0.578125 0.109375 0  0.59375 0.109375 0  0.609375 0.109375 0  0.625 0.109375 0  0.640625 0.109375 0  0.65625 0.109375 0  0.671875 0.109375 0  0.6875 0.109375 0  0.703125 0.109375 0  0.71875 0.109375 0  0.734375 0.109375 0  0.75 0.109375 0  0.765625 0.109375 0  0.78125 0.109375 0  0.796875 0.109375 0  0.8125 0.109375 0  0.828125 0.109375 0  0.84375 0.109375 0  0.859375 0.109375 0  0.875 0.109375 0  0.890625 0.109375 0  0.90625 0.109375 0  0.921875 0.109375 0  0.9375 0.109375 0  0.953125 0.109375 0  0.96875 0.109375 0  0.984375 0.109375 0  1 0.109375 0  0 0.125 0  0.015625 0.125 0  0.03125 0.125 0  0.046875 0.125 0  0.0625 0.125 0  0.078125 0.125 0  0.09375 0.125 0  0.109375 0.125 0  0.125 0.12
[...]
<PointData  Vectors="f_1117"> 
<DataArray  type="Float64"  Name="f_1117"  NumberOfComponents="3" format="ascii">0.0000000000000000e+00 0.0000000000000000e+00 0.0000000000000000e+00  1.5871057947531270e-02 0.0000000000000000e+00 0.0000000000000000e+00  3.2241981486102786e-02 0.0000000000000000e+00 0.0000000000000000e+00  4.9124578222204882e-02 0.0000000000000000e+00 0.0000000000000000e+00  6.6530903685989309e-02 0.0000000000000000e+00 0.0000000000000000e+00  8.4473266211556403e-02 0.0000000000000000e+00 0.0000000000000000e+00  1.0296423190946584e-01 0.0000000000000000e+00 0.0000000000000000e+00  1.2201662973316592e-01 0.0000000000000000e+00 0.0000000000000000e+00  1.4164355664106681e-01 0.0000000000000000e+00 0.0000000000000000e+00  1.6185838285601106e-01 0.0000000000000000e+00 0.0000000000000000e+00  1.8267475722393303e-01 0.0000000000000000e+00 0.0000000000000000e+00  2.0410661267352304e-01 0.0000000000000000e+00 0.0000000000000000e+00  2.2616817177875051e-01 0.0000000000000000e+00 0.0000000000000000e+00  2.4887395242613136e-01 0.0000000000000000e+00 0.0000000000000000e+00  2.7223877358865867e-01 0.0000000000000000e+00 0.0000000000000000e+00  2.9627776120835320e-01 0.0000000000000000e+00 0.0000000000000000e+00  3.2100635418941659e-01 0.0000000000000000e+00 0.0000000000000000e+00  3.4644031050401980e-01 0.0000000000000000e+00 0.0000000000000000e+00  3.7259571341278419e-01 0.0000000000000000e+00 0.0000000000000000e+00  3.9948897780204895e-01 0.0000000000000000e+00 0.0000000000000000e+00  4.2713685664007234e-01 0.0000000000000000e+00 0.0000000000000000e+00  4.5555644755432667e-01 0.0000000000000000e+00 0.0000000000000000e+00  4.8476519953211195e-01 0.0000000000000000e+00 0.0000000000000000e+00  5.1478091974673357e-01 0.0000000000000000e+00 0.0000000000000000e+00  5.4562178051153865e-01 0.0000000000000000e+00 0.0000000000000000e+00  5.7730632636414903e-01 0.0000000000000000e+00 0.0000000000000000e+00  6.0985348128326089e-01 0.0000000000000000e+00 0.0000000000000000e+00  6.4328255604043505e-01 0.0000000000000000e+00 0.0000000000000000e+00  6.7761325568933450e-01 0.0000000000000000e+00 0.0000000000000000e+00  7.1286568719491983e-01 0.0000000000000000e+00 0.0000000000000000e+00  7.4906036720515112e-01 0.0000000000000000e+00 0.0000000000000000e+00  7.8621822996779145e-01 0.0000000000000000e+00 0.0000000000000000e+00  8.2436063539495663e-01 0.0000000000000000e+00 0.0000000000000000e+00  8.6350937727810051e-01 0.0000000000000000e+00 0.0000000000000000e+00  9.0368669165617521e-01 0.0000000000000000e+00 0.0000000000000000e+00  9.4491526533974979e-01 0.0000000000000000e+00 0.0000000000000000e+00  9.8721824459392871e-01 0.0000000000000000e+00 0.0000000000000000e+00  1.0306192439829558e+00 0.0000000000000000e+00 0.0000000000000000e+00  1.0751423553794357e+00 0.0000000000000000e+00 0.0000000000000000e+00  1.1208121571411844e+00 0.0000000000000000e+00 0.0000000000000000e+00  1.1676537234587261e+00 0.0000000000000000e+00 0.0000000000000000e+00  1.2156926338765610e+00 0.0000000000000000e+00 0.0000000000000000e+00  1.2649549829913374e+00 0.0000000000000000e+00 0.0000000000000000e+00  1.3154673903301606e+00 0.0000000000000000e+00 0.0000000000000000e+00  1.3672570104122828e+00 0.0000000000000000e+00 0.0000000000000000e+00  1.4203515429975262e+00 0.0000000000000000e+00 0.0000000000000000e+00  1.4747792435247951e+00 0.0000000000000000e+00 0.0000000000000000e+00  1.5305689337441588e+00 0.0000000000000000e+00 0.0000000000000000e+00  1.5877500125459711e+00 0.0000000000000000e+00 0.0000000000000000e+00  1.6463524669906362e+00 0.0000000000000000e+00 0.0000000000000000e+00  1.7064068835426287e+00 0.0000000000000000e+00 0.0000000000000000e+00  1.7679444595124703e+00 0.0000000000000000e+00 0.0000000000000000e+00  1.8309970147104420e+00 0.0000000000000000e+00 0.0000000000000000e+00  1.8955970033158334e+00 0.0000000000000000e+00 0.0000000000000000e+00  1.9617775259656554e+00 0.0000000000000000e+00 0.0000000000000000e+00  2.0295723420667748e+00 0.0000000000000000e+00 0.0000000000000000e+00  2.0990158823355172e+00 0.0000000000000000e+00 0.0000000000000000e+00  2.1701432615688159e+00 0.0000000000000000e+00 0.0000000000000000e+00  2.2429902916511391e+00 0.0000000000000000e+00 0.0000000000000000e+00  2.3175934948014261e+00 0.0000000000000000e+00 0.0000000000000000e+00  2.3939901170643636e+00 0.0000000000000000e+00 0.0000000000000000e+00  2.4722181420504210e+00 0.0000000000000000e+00 0.0000000000000000e+00  2.5523163049291346e+00 0.0000000000000000e+00 0.0000000000000000e+00  2.6343241066802099e+00 0.0000000000000000e+00 0.0000000000000000e+00  2.7182818286070765e+00 0.0000000000000000e+00 0.0000000000000000e+00  0.0000000000000000e+00 -1.5871057947531270e-02 0.0000000000000000e+00  1.6372579905968423e-02 -1.6372579785825563e-02 0.0000000000000000e+00  3.3262391565259272e-02 -1.6887749865166859e-02 0.0000000000000000e+00  5.0683300701881734e-02 -1.7415470680077462e-02 0.0000000000000000e+00  6.8648016207104534e-02 -1.7955500963765268e-02 0.0000000000000000e+00  8.7168986143138311e-02 -1.8507940689927650e-02 0.0000000000000000e+00  1.0625873384775196e-01 -1.9073008842526488e-02 0.0000000000000000e+00  1.2592999934221938e-01 -1.9650974487011443e-02 0.0000000000000000e+00  1.4619580495980861e-01 -2.0242127728339169e-02 0.0000000000000000e+00  1.6706948201050462e-01 -2.0846768499408551e-02 0.0000000000000000e+00  1.8856468278257749e-01 -2.1465202257450574e-02 0.0000000000000000e+00  2.1069538617884970e-01 -2.2097738420428902e-02 0.0000000000000000e+00  2.3347590088561346e-01 -2.2744689990900013e-02 0.0000000000000000e+00  2.5692086789805174e-01 -2.3406373711209016e-02 0.0000000000000000e+00  2.8104526321844298e-01 -2.4083110436969171e-02 0.0000000000000000e+00  3.0586440109077562e-01 -2.4775225588905350e-02 0.0000000000000000e+00  3.3139393790999533e-01 -2.5483049618599967e-02 0.0000000000000000e+00  3.5764987684171468e-01 -2.6206918460584334e-02 0.0000000000000000e+00  3.8464857313447542e-01 -2.6947173958423706e-02 0.0000000000000000e+00  4.1240674008702505e-01 -2.7704164262623992e-02 0.0000000000000000e+00  4.4094145562255038e-01 -2.8478244199254817e-02 0.0000000000000000e+00  4.7027016942274896e-01 -2.9269775612762190e-02 0.0000000000000000e+00  5.0041071057369824e-01 -3.0079127683462218e-02 0.0000000000000000e+00  5.3138129568054604e-01 -3.0906677223693155e-02 0.0000000000000000e+00  5.6320053740764242e-01 -3.1752808952028061e-02 0.0000000000000000e+00  5.9588745340548954e-01 -3.2617915749289891e-02 0.0000000000000000e+00  6.2946147558397503e-01 -3.3502398893935130e-02 0.0000000000000000e+00  6.6394245969406995e-01 -3.4406668279797457e-02 0.0000000000000000e+00  6.9935069517593496e-01 -3.5331142611899471e-02 0.0000000000000000e+00  7.3570691523239884e-01 -3.6276249583201414e-02 0.0000000000000000e+00  7.7303230708044979e-01 -3.7242426025755733e-02 0.0000000000000000e+00  8.1134852233201282e-01 -3.8230118038836865e-02 0.0000000000000000e+00  8.5067768744680905e-01 -3.9239781085557410e-02 0.0000000000000000e+00  8.9104241419735208e-01 -4.0271880060950845e-02 0.0000000000000000e+00  9.3246581007574403e-01 -4.1326889320516882e-02 0.0000000000000000e+00  9.7497148856715188e-01 -4.2405292672551505e-02 0.0000000000000000e+00  1.0185835792027502e+00 -4.3507583321196919e-02 0.0000000000000000e+00  1.0633267372994328e+00 -4.4634263764600404e-02 0.0000000000000000e+00  1.1092261532799805e+00 -4.5785845632444977e-02 0.0000000000000000e+00  1.1563075614607994e+00 -4.6962849468489713e-02 0.0000000000000000e+00  1.2045972481795393e+00 -4.8165804440245680e-02 0.0000000000000000e+00  1.2541220591286162e+00 -4.9395247983273424e-02 0.0000000000000000e+00  1.3049094057450321e+00 -5.0651725359503533e-02 0.0000000000000000e+00  1.3569872705019017e+00 -5.1935789140200653e-02 0.0000000000000000e+00  1.4103842109346583e+00 -5.3247998592265165e-02 0.0000000000000000e+00  1.4651293622331805e+00 -5.4588918982807065e-02 0.0000000000000000e+00  1.5212524382183601e+00 -5.5959120776118851e-02 0.0000000000000000e+00  1.5787837305116041e+00 -5.7359178734316695e-02 0.0000000000000000e+00  1.6377541056883917e+00 -5.8789670894456053e-02 0.0000000000000000e+00  1.6981950002351331e+00 -6.0251177443272186e-02 0.0000000000000000e+00  1.7601384130791522e+00 -6.1744279489962417e-02 0.0000000000000000e+00  1.8236168956110923e+00 -6.3269557708424018e-02 0.0000000000000000e+00  1.8886635387295920e+00 -6.4827590845889335e-02 0.0000000000000000e+00  1.9553119571222335e+00 -6.6418954012187115e-02 0.0000000000000000e+00  2.0235962698747718e+00 -6.8044216856340947e-02 0.0000000000000000e+00  2.0935510779959134e+00 -6.9703941426464994e-02 0.0000000000000000e+00  2.1652114375368985e+00 -7.1398679435298540e-02 0.0000000000000000e+00  2.2386128278389270e+00 -7.3128969181534553e-02 0.0000000000000000e+00  2.3137911164076330e+00 -7.4895331332088824e-02 0.0000000000000000e+00  2.3907825177327982e+00 -7.6698264800274585e-02 0.0000000000000000e+00  2.4696235544646945e+00 -7.8538245011111188e-02 0.0000000000000000e+00  2.5503510439737749e+00 -8.0415738614381366e-02 0.0000000000000000e+00  2.6330021732956084e+00 -8.2331304514796297e-02 0.0000000000000000e+00  2.7176150225827698e+00 -8.4286029927310852e-02 0.0000000000000000e+00  2.8042305471176587e+00 -8.6284016834389410e-02 0.0000000000000000e+00  0.0000000000000000e+00 -3.2241981486102786e-02 0.0000000000000000e+00  1.6887752675203042e-02 -3.3262393222981267e-02 0.0000000000000000e+00  3.4311267462772931e-02 -3.4311261406542344e-02 0.0000000000000000e+00  5.2284591305733159e-02 -3.5386014461600779e-02 0.0000000000000000e+00  7.0820852844909396e-02 -3.6485799923678959e-02 0.0000000000000000e+00  8.9932853578306049e-02 -3.7610574680346856e-02 0.0000000000000000e+00  1.0963334415759279e-01 -3.8760670378349266e-02 0.0000000000000000e+00  1.2993522221230502e-01 -3.9936590718442737e-02 0.0000000000000000e+00  1.5085163524073444e-01 -4.1138918789318565e-02 0.0000000000000000e+00  1.7239603444017360e-01 -4.2368275429794190e-02 0.0000000000000000e+00  1.9458220258228417e-01 -4.3625300233486278e-02 0.0000000000000000e+00  2.1742426794126979e-01 -4.4910643233953246e-02 0.0000000000000000e+00  2.4093671153234975e-01 -4.6224961661581444e-02 0.0000000000000000e+00  2.6513437131707152e-01 -4.7568919184328824e-02 0.0000000000000000e+00  2.9003244534029454e-01 -4.8943186334975894e-02 0.0000000000000000e+00  3.1564649485036511e-01 -5.0348441485900855e-02 0.0000000000000000e+00  3.4199244792487926e-01 -5.1785372045427672e-02 0.0000000000000000e+00  3.6908660386534886e-01 -5.3254675713841737e-02 0.0000000000000000e+00  3.9694563845038550e-01 -5.4757061716299696e-02 0.0000000000000000e+00  4.2558661008110427e-01 -5.6293251976787174e-02 0.0000000000000000e+00  4.5502696677891330e-01 -5.7863982214243208e-02 0.0000000000000000e+00  4.8528455400631915e-01 -5.9470002959596611e-02 0.0000000000000000e+00  5.1637762323257708e-01 -6.1112080490656417e-02 0.0000000000000000e+00  5.4832484120412650e-01 -6.2790997690951020e-02 0.0000000000000000e+00  5.8114529982796059e-01 -6.4507554830238484e-02 0.0000000000000000e+00  6.1485852663036011e-01 -6.6262570273444940e-02 0.0000000000000000e+00  6.4948449568878419e-01 -6.8056881112084924e-02 0.0000000000000000e+00  6.8504363900285314e-01 -6.9891343722401397e-02 0.0000000000000000e+00  7.2155685818706716e-01 -7.1766834239396407e-02 0.0000000000000000e+00  7.5904553645105599e-01 -7.3684248949288753e-02 0.0000000000000000e+00  7.9753155072804005e-01 -7.5644504583901498e-02 0.0000000000000000e+00  8.3703728391288013e-01 -7.7648538516962531e-02 0.0000000000000000e+00  8.7758563704040449e-01 -7.9697308840603567e-02 0.0000000000000000e+00  9.1920004135642119e-01 -8.1791794321206118e-02 0.0000000000000000e+00  9.6190447007474733e-01 -8.3932994207008921e-02 0.0000000000000000e+00  1.0057234497603358e+00 -8.6121927885435101e-02 0.0000000000000000e+00  1.0506820710872855e+00 -8.8359634357770792e-02 0.0000000000000000e+00  1.0968059988971024e+00 -9.0647171530100532e-02 0.0000000000000000e+00  1.1441214812559213e+00 -9.2985615282789855e-02 0.0000000000000000e+00  1.1926553574208532e+00 -9.5376058318565909e-02 0.0000000000000000e+00  1.2424350643595730e+00 -9.7819608747539130e-02 0.0000000000000000e+00  1.2934886417204421e+00 -1.0031738841300575e-01 0.0000000000000000e+00  1.3458447348441249e+00 -1.0287053091379735e-01 0.0000000000000000e+00  1.3995325957119760e+00 -1.0548017933573121e-01 0.0000000000000000e+00  1.4545820813772865e+00 -1.0814748365067536e-01 0.0000000000000000e+00  1.5110236497791256e+00 -1.1087359780347522e-01 0.0000000000000000e+00  1.5688883524394734e+00 -1.1365967643408946e-01 0.0000000000000000e+00  1.6282078239474871e+00 -1.1650687125458445e-01 0.0000000000000000e+00  1.6890142677428333e+00 -1.1941632704468595e-01 0.0000000000000000e+00  1.7513404381570505e+00 -1.2238917733829759e-01 0.0000000000000000e+00  1.8152196183034246e+00 -1.2542653978551760e-01 0.0000000000000000e+00  1.8806855937959530e+00 -1.2852951119178282e-01 0.0000000000000000e+00  1.9477726219801939e+00 -1.3169916222092617e-01 0.0000000000000000e+00  2.0165153970128444e+00 -1.3493653180293730e-01 0.0000000000000000e+00  2.0869490102609727e+00 -1.3824262132639237e-01 0.0000000000000000e+00  2.1591089074449967e+00 -1.4161838847310562e-01 0.0000000000000000e+00  2.2330308414973139e+00 -1.4506474063722574e-01 0.0000000000000000e+00  2.3087508254356921e+00 -1.4858252912102754e-01 0.0000000000000000e+00  2.3863050875120360e+00 -1.5217254478121423e-01 0.0000000000000000e+00  2.4657300362740147e+00 -1.5583552129353453e-01 0.0000000000000000e+00  2.5470622613455602e+00 -1.5957216229361168e-01 0.0000000000000000e+00  2.6303386102763828e+00 -1.6338324498292969e-01 0.0000000000000000e+00  2.7155964378273461e+00 -1.6726995688905447e-01 0.0000000000000000e+00  2.8028742873492267e+00 -1.7123497995571890e-01 0.0000000000000000e+00  2.8922121487771433e+00 -1.7528558477437226e-01 0.0000000000000000e+00  0.0000000000000000e+00 -4.9124578222204882e-02 0.0000000000000000e+00  1.7415479086927168e-02 -5.0683311313871993e-02 0.0000000000000000e+00  3.5386036532170595e-02 -5.2284590368843524e-02 0.0000000000000000e+00  5.3925233080914542e-02 -5.3925205591705994e-02 0.0000000000000000e+00  7.3046290715040360e-02 -5.5603887541074842e-02 0.0000000000000000e+00  9.2762280747114040e-02 -5.7320443967428907e-02 0.0000000000000000e+00  1.1308624954838936e-01 -5.9075264930052426e-02 0.0000000000000000e+00  1.3403137274730420e-01 -6.0869046261117367e-02 0.0000000000000000e+00  1.5561105220578608e-01 -6.2702643070269695e-02 0.0000000000000000e+00  1.7783898018355640e-01 -6.4576993112996611e-02 0.0000000000000000e+00  2.0072917744596783e-01 -6.6493077435120701e-02 0.0000000000000000e+00  2.2429601551370859e-01 -6.8451900935502685e-02 0.0000000000000000e+00  2.4855422974630748e-01 -7.0454483326038445e-02 0.0000000000000000e+00  2.7351892738244860e-01 -7.2501855637131435e-02 0.0000000000000000e+00  2.9920559315058076e-01 -7.4595059647280415e-02 0.0000000000000000e+00  3.2563009397363957e-01 -7.6735148831865718e-02 0.0000000000000000e+00  3.5280868366526441e-01 -7.8923190056714568e-02 0.0000000000000000e+00  3.8075800811794613e-01 -8.1160265594519512e-02 0.0000000000000000e+00  4.0949511125228771e-01 -8.3447475237160673e-02 0.0000000000000000e+00  4.3903744184949134e-01 -8.5785938378830889e-02 0.0000000000000000e+00  4.6940286130814929e-01 -8.8176796007389230e-02 0.0000000000000000e+00  5.0060965231136301e-01 -9.0621212570553236e-02 0.0000000000000000e+00  5.3267652836526946e-01 -9.3120377704611429e-02 0.0000000000000000e+00  5.6562264414546248e-01 -9.5675507816626995e-02 0.0000000000000000e+00  5.9946760658342046e-01 -9.8287847519604357e-02 0.0000000000000000e+00  6.3423148660842787e-01 -1.0095867091500564e-01 0.0000000000000000e+00  6.6993483146271660e-01 -1.0368928272134995e-01 0.0000000000000000e+00  7.0659867749018845e-01 -1.0648101923814376e-01 0.0000000000000000e+00  7.4424456330305810e-01 -1.0933524913857835e-01 0.0000000000000000e+00  7.8289454320837937e-01 -1.1225337407372628e-01 0.0000000000000000e+00  8.2257120078045187e-01 -1.1523682907531041e-01 0.0000000000000000e+00  8.6329766243672568e-01 -1.1828708273175229e-01 0.0000000000000000e+00  9.0509761087887053e-01 -1.2140563711822380e-01 0.0000000000000000e+00  9.4799529822497652e-01 -1.2459402744877401e-01 0.0000000000000000e+00  9.9201555866359015e-01 -1.2785382142546983e-01 0.0000000000000000e+00  1.0371838204179100e+00 -1.3118661824596176e-01 0.0000000000000000e+00  1.0835261168150088e+00 -1.3459404724012633e-01 0.0000000000000000e+00  1.1310690962054479e+00 -1.3807776609292619e-01 0.0000000000000000e+00  1.1798400304886343e+00 -1.4163945862115168e-01 0.0000000000000000e+00  1.2298668219446522e+00 -1.4528083205820694e-01 0.0000000000000000e+00  1.2811780080902575e+00 -1.4900361381555763e-01 0.0000000000000000e+00  1.3338027642209036e+00 -1.5280954767848801e-01 0.0000000000000000e+00  1.3877709033297334e+00 -1.5670038941322370e-01 0.0000000000000000e+00  1.4431128730388540e+00 -1.6067790175301810e-01 0.0000000000000000e+00  1.4998597492134516e+00 -1.6474384874879947e-01 0.0000000000000000e+00  1.5580432258687720e+00 -1.6889998945260087e-01 0.0000000000000000e+00  1.6176956010407715e+00 -1.7314807092412784e-01 0.0000000000000000e+00  1.6788497582687107e+00 -1.7748982056537518e-01 0.0000000000000000e+00  1.7415391434848144e+00 -1.8192693785239672e-01 0.0000000000000000e+00  1.8057977370377383e+00 -1.8646108553688528e-01 0.0000000000000000e+00  1.8716600208512526e+00 -1.9109388038356379e-01 0.0000000000000000e+00  1.9391609404525847e+00 -1.9582688351019278e-01 0.0000000000000000e+00  2.0083358625497474e+00 -2.0066159054392957e-01 0.0000000000000000e+00  2.0792205279088178e+00 -2.0559942180551496e-01 0.0000000000000000e+00  2.1518510013679117e+00 -2.1064171286375291e-01 0.0000000000000000e+00  2.2262636194573187e+00 -2.1578970598893571e-01 0.0000000000000000e+00  2.3024949392399736e+00 -2.2104454370316953e-01 0.0000000000000000e+00  2.3805816935955919e+00 -2.2640726760821803e-01 0.0000000000000000e+00  2.4605607585868889e+00 -2.3187882718242914e-01 0.0000000000000000e+00  2.5424691518893772e+00 -2.3746011257707128e-01 0.0000000000000000e+00  2.6263440821775990e+00 -2.4315204349265371e-01 0.0000000000000000e+00  2.7122230870033510e+00 -2.4895579034496199e-01 0.0000000000000000e+00  2.8001442847050466e+00 -2.5487329760570127e-01 0.0000000000000000e+00  2.8901466405360767e+00 -2.6090842126490804e-01 0.0000000000000000e+00  2.9822693456376679e+00 -2.6706889662426886e-01 0.0000000000000000e+00  0.0000000000000000e+00 -6.6530903685989309e-02 0.0000000000000000e+00  1.7955515141822049e-02 -6.8648045452499334e-02 0.0000000000000000e+00  3.6485836299822869e-02 -7.0820866914968084e-02 0.0000000000000000e+00  5.5603934419783931e-02 -7.3046266075377467e-02 0.0000000000000000e+00  7.5322949853967675e-02 -7.5322903065112898e-02 0.0000000000000000e+00  9.5656116182996659e-02 -7.7650568668587508e-02 0.0000000000000000e+00  1.1661675818830640e-01 -8.0029743339346163e-02 0.0000000000000000e+00  1.3821836797184486e-01 -8.2461312085705479e-02 0.0000000000000000e+00  1.6047467074622807e-01 -8.4946391946418981e-02 0.0000000000000000e+00  1.8339967989844294e-01 -8.7486231006107251e-02 0.0000000000000000e+00  2.0700773513854789e-01 -9.0082151447250874e-02 0.0000000000000000e+00  2.3131352840302952e-01 -9.2735518509444184e-02 0.0000000000000000e+00  2.5633212100296859e-01 -9.5447724365851028e-02 0.0000000000000000e+00  2.8207895528040006e-01 -9.8220180686360181e-02 0.0000000000000000e+00  3.0856986313714346e-01 -1.0105431613744328e-01 0.0000000000000000e+00  3.3582107301370545e-01 -1.0395157664381977e-01 0.0000000000000000e+00  3.6384921636268180e-01 -1.0691342715611095e-01 0.0000000000000000e+00  3.9267133426207651e-01 -1.0994135418452361e-01 0.0000000000000000e+00  4.2230488457033444e-01 -1.1303686867191817e-01 0.0000000000000000e+00  4.5276774983153284e-01 -1.1620150895277070e-01 0.0000000000000000e+00  4.8407824605101873e-01 -1.1943684366018380e-01 0.0000000000000000e+00  5.