<?xml version="1.0"?>
<VTKFile type="UnstructuredGrid"  version="0.1"  >
<UnstructuredGrid>
<Piece  NumberOfPoints="729" NumberOfCells="3072">
<Points>
<DataArray  type="Float64"  NumberOfComponents="3"  format="ascii">0 0 0  0.125 0 0  0.25 0 0  0.375 0 0  0.5 0 0  0.625 0 0  0.75 0 0  0.875 0 0  1 0 0  0 0.125 0  0.125 0.125 0  0.25 0.125 0  0.375 0.125 0  0.5 0.125 0  0.625 0.125 0  0.75 0.125 0  0.875 0.125 0  1 0.125 0  0 0.25 0  0.125 0.25 0  0.25 0.25 0  0.375 0.25 0  0.5 0.25 0  0.625 0.25 0  0.75 0.25 0  0.875 0.25 0  1 0.25 0  0 0.375 0  0.125 0.375 0  0.25 0.375 0  0.375 0.375 0  0.5 0.375 0  0.625 0.375 0  0.75 0.375 0  0.875 0.375 0  1 0.375 0  0 0.5 0  0.125 0.5 0  0.25 0.5 0  0.375 0.5 0  0.5 0.5 0  0.625 0.5 0  0.75 0.5 0  0.875 0.5 0  1 0.5 0  0 0.625 0  0.125 0.625 0  0.25 0.625 0  0.375 0.625 0  0.5 0.625 0  0.625 0.625 0  0.75 0.625 0  0.875 0.625 0  1 0.625 0  0 0.75 0  0.125 0.75 0  0.25 0.75 0  0.375 0.75 0  0.5 0.75 0  0.625 0.75 0  0.75 0.75 0  0.875 0.75 0  1 0.75 0  0 0.875 0  0.125 0.875 0  0.25 0.875 0  0.375 0.875 0  0.5 0.875 0  0.625 0.875 0  0.75 0.875 0  0.875 0.875 0  1 0.875 0  0 1 0  0.125 1 0  0.25 1 0  0.375 1 0  0.5 1 0  0.625 1 0  0.75 1 0  0.875 1 0  1 1 0  0 0 0.125  0.125 0 0.125  0.25 0 0.125  0.375 0 0.125  0.5 0 0.125  0.625 0 0.125  0.75 0 0.125  0.875 0 0.125  1 0 0.125  0 0.125 0.125  0.125 0.125 0.125  0.25 0.125 0.125  0.375 0.125 0.125  0.5 0.125 0.125  0.625 0.125 0.125  0.75 0.125 0.125  0.875 0.125 0.125  1 0.125 0.125  0 0.25 0.125  0.125 0.25 0.125  0.25 0.25 0.125  0.375 0.25 0.125  0.5 0.25 0.125  0.625 0.25 0.125  0.75 0.25 0.125  0.875 0.25 0.125  1 0.25 0.125  0 0.375 0.125  0.125 0.375 0.125  0.25 0.375 0.125  0.375 0.375 0.125  0.5 0.375 0.125  0.625 0.375 0.125  0.75 0.375 0.125  0.875 0.375 0.125  1 0.375 0.125  0 0.5 0.125  0.125 0.5 0.125  0.25 0.5 0.125  0.375 0.5 0.125  0.5 0.5 0.125  0.625 0.5 0.125  0.75 0.5 0.125  0.875 0.5 0.125  1 0.5 0.125  0 0.625 0.125  0.125 0.625 0.125  0.25 0.625 0.125  0.375 0.625 0.125  0.5 0.625 0.125  0.625 0.625 0.125  0.75 0.625 0.125  0.875 0.625 0.125  1 0.625 0.125  0 0.75 0.125  0.125 0.75 0.125  0.25 0.75 0.125  0.375 0.75 0.125  0.5 0.75 0.125  0.625 0.75 0.125  0.75 0.75 0.125  0.875 0.75 0.125  1 0.75 0.125  0 0.875 0.125  0.125 0.875 0.125  0.25 0.875 0.125  0.375 0.875 0.125  0.5 0.875 0.125  0.625 0.875 0.125  0.75 0.875 0.125  0.875 0.875 0.125  1 0.875 0.125  0 1 0.125  0.125 1 0.125  0.25 1 0.125  0.375 1 0.125  0.5 1 0.125  0.625 1 0.125  0.75 1 0.125  0.875 1 0.125  1 1 0.125  0 0 0.25  0.125 0 0.25  0.25 0 0.25  0.375 0 0.25  0.5 0 0.25  0.625 0 0.25  0.75 0 0.25  0.875 0 0.25  1 0 0.25  0 0.125 0.25  0.125 0.125 0.25  0.25 0.125 0.25  0.375 0.125 0.25  0.5 0.125 0.25  0.625 0.125 0.25  0.75 0.125 0.25  0.875 0.125 0.25  1 0.125 0.25  0 0.25 0.25  0.125 0.25 0.25  0.25 0.25 0.25  0.375 0.25 0.25  0.5 0.25 0.25  0.625 0.25 0.25  0.75 0.25 0.25  0.875 0.25 0.25  1 0.25 0.25  0 0.375 0.25  0.125 0.375 0.25  0.25 0.375 0.25  0.375 0.375 0.25  0.5 0.375 0.25  0.625 0.375 0.25  0.75 0.375 0.25  0.875 0.375 0.25  1 0.375 0.25  0 0.5 0.25  0.125 0.5 0.25  0.25 0.5 0.25  0.375 0.5 0.25  0.5 0.5 0.25  0.625 0.5 0.25  0.75 0.5 0.25  0.875 0.5 0.25  1 0.5 0.25  0 0.625 0.25  0.125 0.625 0.25  0.25 0.625 0.25  0.375 0.625 0.25  0.5 0.625 0.25  0.625 0.625 0.25  0.75 0.625 0.25  0.875 0.625 0.25  1 0.625 0.25  0 0.75 0.25  0.125 0.75 0.25  0.25 0.75 0.25  0.375 0.75 0.25  0.5 0.75 0.25  0.625 0.75 0.25  0.75 0.75 0.25  0.875 0.75 0.25  1 0.75 0.25  0 0.875 0.25  0.125 0.875 0.25  0.25 0.875 0.25  0.375 0.875 0.25  0.5 0.875 0.25  0.625 0.875 0.25  0.75 0.875 0.25  0.875 0.875 0.25  1 0.875 0.25  0 1 0.25  0.125 1 0.25  0.25 1 0.25  0.375 1 0.25  0.5 1 0.25  0.625 1 0.25  0.75 1 0.25  0.875 1 0.25  1 1 0.25  0 0 0.375  0.125 0 0.375  0.25 0 0.375  0.375 0 0.375  0.5 0 0.375  0.625 0 0.375  0.75 0 0.375  0.875 0 0.375  1 0 0.375  0 0.125 0.375  0.125 0.125 0.375  0.25 0.125 0.375  0.375 0.125 0.375  0.5 0.125 0.375  0.625 0.125 0.375  0.75 0.125 0.375  0.875 0.125 0.375  1 0.125 0.375  0 0.25 0.375  0.125 0.25 0.375  0.25 0.25 0.375  0.375 0.25 0.375  0.5 0.25 0.375  0.625 0.25 0.375  0.75 0.25 0.375  0.875 0.25 0.375  1 0.25 0.375  0 0.375 0.375  0.125 0.375 0.375  0.25 0.375 0.375  0.375 0.375 0.375  0.5 0.375 0.375  0.625 0.375 0.375  0.75 0.375 0.375  0.875 0.375 0.375  1 0.375 0.375  0 0.5 0.375  0.125 0.5 0.375  0.25 0.5 0.375  0.375 0.5 0.375  0.5 0.5 0.375  0.625 0.5 0.375  0.75 0.5 0.375  0.875 0.5 0.375  1 0.5 0.375  0 0.625 0.375  0.125 0.625 0.375  0.25 0.625 0.375  0.375 0.625 0.375  0.5 0.625 0.375  0.625 0.625 0.375  0.75 0.625 0.375  0.875 0.625 0.375  1 0.625 0.375  0 0.75 0.375  0.125 0.75 0.375  0.25 0.75 0.375  0.375 0.75 0.375  0.5 0.75 0.375  0.625 0.75 0.375  0.75 0.75 0.375  0.875 0.75 0.375  1 0.75 0.375  0 0.875 0.375  0.125 0.875 0.375  0.25 0.875 0.375  0.375 0.875 0.375  0.5 0.875 0.375  0.625 0.875 0.375  0.75 0.875 0.375  0.875 0.875 0.375  1 0.875 0.375  0 1 0.375  0.125 1 0.375  0.25 1 0.375  0.375 1 0.375  0.5 1 0.375  0.625 1 0.375  0.75 1 0.375  0.875 1 0.375  1 1 0.375  0 0 0.5  0.125 0 0.5  0.25 0 0.5  0.375 0 0.5  0.5 0 0.5  0.625 0 0.5  0.75 0 0.5  0.875 0 0.5  1 0 0.5  0 0.125 0.5  0.125 0.125 0.5  0.25 0.125 0.5  0.375 0.125 0.5  0.5 0.125 0.5  0.625 0.125 0.5  0.75 0.125 0.5  0.875 0.125 0.5  1 0.125 0.5  0 0.25 0.5  0.125 0.25 0.5  0.25 0.25 0.5  0.375 0.25 0.5  0.5 0.25 0.5  0.625 0.25 0.5  0.75 0.25 0.5  0.875 0.25 0.5  1 0.25 0.5  0 0.375 0.5  0.125 0.375 0.5  0.25 0.375 0.5  0.375 0.375 0.5  0.5 0.375 0.5  0.625 0.375 0.5  0.75 0.375 0.5  0.875 0.375 0.5  1 0.375 0.5  0 0.5 0.5  0.125 0.5 0.5  0.25 0.5 0.5  0.375 0.5 0.5  0.5 0.5 0.5  0.625 0.5 0.5  0.75 0.5 0.5  0.875 0.5 0.5  1 0.5 0.5  0 0.625 0.5  0.125 0.625 0.5  0.25 0.625 0.5  0.375 0.625 0.5  0.5 0.625 0.5  0.625 0.625 0.5  0.75 0.625 0.5  0.875 0.625 0.5  1 0.625 0.5  0 0.75 0.5  0.125 0.75 0.5  0.25 0.75 0.5  0.375 0.75 0.5  0.5 0.75 0.5  0.625 0.75 0.5  0.75 0.75 0.5  0.875 0.75 0.5  1 0.75 0.5  0 0.875 0.5  0.125 0.875 0.5  0.25 0.875 0.5  0.375 0.875 0.5  0.5 0.875 0.5  0.625 0.875 0.5  0.75 0.875 0.5  0.875 0.875 0.5  1 0.875 0.5  0 1 0.5  0.125 1 0.5  0.25 1 0.5  0.375 1 0.5  0.5 1 0.5  0.625 1 0.5  0.75 1 0.5  0.875 1 0.5  1 1 0.5  0 0 0.625  0.125 0 0.625  0.25 0 0.625  0.375 0 0.625  0.5 0 0.625  0.625 0 0.625  0.75 0 0.625  0.875 0 0.625  1 0 0.625  0 0.125 0.625  0.125 0.125 0.625  0.25 0.125 0.625  0.375 0.125 0.625  0.5 0.125 0.625  0.625 0.125 0.625  0.75 0.125 0.625  0.875 0.125 0.625  1 0.125 0.625  0 0.25 0.625  0.125 0.25 0.625  0.25 0.25 0.625  0.375 0.25 0.625  0.5 0.25 0.625  0.625 0.25 0.625  0.75 0.25 0.625  0.875 0.25 0.625  1 0.25 0.625  0 0.375 0.625  0.125 0.375 0.625  0.25 0.375 0.625  0.375 0.375 0.625  0.5 0.375 0.625  0.625 0.375 0.625  0.75 0.375 0.625  0.875 0.375 0.625  1 0.375 0.625  0 0.5 0.625  0.125 0.5 0.625  0.25 0.5 0.625  0.375 0.5 0.625  0.5 0.5 0.625  0.625 0.5 0.625  0.75 0.5 0.625  0.875 0.5 0.625  1 0.5 0.625  0 0.625 0.625  0.125 0.625 0.625  0.25 0.625 0.625  0.375 0.625 0.625  0.5 0.625 0.625  0.625 0.625 0.625  0.75 0.625 0.625  0.875 0.625 0.625  1 0.625 0.625  0 0.75 0.625  0.125 0.75 0.625  0.25 0.75 0.625  0.375 0.75 0.625  0.5 0.75 0.625  0.625 0.75 0.625  0.75 0.75 0.625  0.875 0.75 0.625  1 0.75 0.625  0 0.875 0.625  0.125 0.875 0.625  0.25 0.875 0.625  0.375 0.875 0.625  0.5 0.875 0.625  0.625 0.875 0.625  0.75 0.875 0.625  0.875 0.875 0.625  1 0.875 0.625  0 1 0.625  0.125 1 0.625  0.25 1 0.625  0.375 1 0.625  0.5 1 0.625  0.625 1 0.625  0.75 1 0.625  0.875 1 0.625  1 1 0.625  0 0 0.75  0.125 0 0.75  0.25 0 0.75  0.375 0 0.75  0.5 0 0.75  0.625 0 0.75  0.75 0 0.75  0.875 0 0.75  1 0 0.75  0 0.125 0.75  0.125 0.125 0.75  0.25 0.125 0.75  0.375 0.125 0.75  0.5 0.125 0.75  0.625 0.125 0.75  0.75 0.125 0.75  0.875 0.125 0.75  1 0.125 0.75  0 0.25 0.75  0.125 0.25 0.75  0.25 0.25 0.75  0.375 0.25 0.75  0.5 0.25 0.75  0.625 0.25 0.75  0.75 0.25 0.75  0.875 0.25 0.75  1 0.25 0.75  0 0.375 0.75  0.125 0.375 0.75  0.25 0.375 0.75  0.375 0.375 0.75  0.5 0.375 0.75  0.625 0.375 0.75  0.75 0.375 0.75  0.875 0.375 0.75  1 0.375 0.75  0 0.5 0.75  0.125 0.5 0.75  0.25 0.5 0.75  0.375 0.5 0.75  0.5 0.5 0.75  0.625 0.5 0.75  0.75 0.5 0.75  0.875 0.5 0.75  1 0.5 0.75  0 0.625 0.75  0.125 0.625 0.75  0.25 0.625 0.75  0.375 0.625 0.75  0.5 0.625 0.75  0.625 0.625 0.75  0.75 0.625 0.75  0.875 0.625 0.75  1 0.625 0.75  0 0.75 0.75  0.125 0.75 0.75  0.25 0.75 0.75  0.375 0.75 0.75  0.5 0.75 0.75  0.625 0.75 0.75  0.75 0.75 0.75  0.875 0.75 0.75  1 0.75 0.75  0 0.875 0.75  0.125 0.875 0.75  0.25 0.875 0.75  0.375 0.875 0.75  0.5 0.875 0.75  0.625 0.875 0.75  0.75 0.875 0.75  0.875 0.875 0.75  1 0.875 0.75  0 1 0.75  0.125 1 0.75  0.25 1 0.75  0.375 1 0.75  0.5 1 0.75  0.625 1 0.75  0.75 1 0.75  0.875 1 0.75  1 1 0.75  0 0 0.875  0.125 0 0.875  0.25 0 0.875  0.375 0 0.875  0.5 0 0.875  0.625 0 0.875  0.75 0 0.875  0.875 0 0.875  1 0 0.875  0 0.125 0.875  0.125 0.125 0.875  0.25 0.125 0.875  0.375 0.125 0.875  0.5 0.125 0.875  0.625 0.125 0.875  0.75 0.125 0.875  0.875 0.125 0.875  1 0.125 0.875  0 0.25 0.875  0.125 0.25 0.875  0.25 0.25 0.875  0.375 0.25 0.875  0.5 0.25 0.875  0.625 0.25 0.875  0.75 0.25 0.875  0.875 0.25 0.875  1 0.25 0.875  0 0.375 0.875  0.125 0.375 0.875  0.25 0.375 0.875  0.375 0.375 0.875  0.5 0.375 0.875  0.625 0.375 0.875  0.75 0.375 0.875  0.875 0.375 0.875  1 0.375 0.875  0 0.5 0.875  0.125 0.5 0.875  0.25 0.5 0.875  0.375 0.5 0.875  0.5 0.5 0.875  0.625 0.5 0.875  0.75 0.5 0.875  0.875 0.5 0.875  1 0.5 0.875  0 0.625 0.875  0.125 0.625 0.875  0.25 0.625 0.875  0.375 0.625 0.875  0.5 0.625 0.875  0.625 0.625 0.875  0.75 0.625 0.875  0.875 0.625 0.875  1 0.625 0.875  0 0.75 0.875  0.125 0.75 0.875  0.25 0.75 0.875  0.375 0.75 0.875  0.5 0.75 0.875  0.625 0.75 0.875  0.75 0.75 0.875  0.875 0.75 0.875  1 0.75 0.875  0 0.875 0.875  0.125 0.875 0.875  0.25 0.875 0.875  0.375 0.875 0.875  0.5 0.875 0.875  0.625 0.875 0.875  0.75 0.875 0.875  0.
[...]
<PointData  Vectors="f_100"> 
<DataArray  type="Float64"  Name="f_100"  NumberOfComponents="3" format="ascii">0.0000000000000000e+00 0.0000000000000000e+00 0.0000000000000000e+00  0.0000000000000000e+00 1.4127498127344787e-01 -1.4127498127344787e-01  0.0000000000000000e+00 3.1767297187526433e-01 -3.1767297187526433e-01  0.0000000000000000e+00 5.3292338523619442e-01 -5.3292338523619442e-01  0.0000000000000000e+00 7.9043908322177292e-01 -7.9043908322177292e-01  0.0000000000000000e+00 1.0931056148869174e+00 -1.0931056148869174e+00  0.0000000000000000e+00 1.4430292663081350e+00 -1.4430292663081350e+00  0.0000000000000000e+00 1.8412411445779877e+00 -1.8412411445779877e+00  0.0000000000000000e+00 2.2873552872024510e+00 -2.2873552872024510e+00  -1.4127498127344787e-01 0.0000000000000000e+00 1.4127498127344787e-01  -1.6008552648705229e-01 1.6008552648705229e-01 0.0000000000000000e+00  -1.8140066669719171e-01 3.5997063666159734e-01 -1.7856996996440569e-01  -2.0555388485321374e-01 6.0388130958353103e-01 -3.9832742473031690e-01  -2.3292306664329573e-01 8.9568482439631258e-01 -6.6276175775301704e-01  -2.6393641265043183e-01 1.2386509365477740e+00 -9.7471452389734192e-01  -2.9907913770284422e-01 1.6351663808472212e+00 -1.3360872431443760e+00  -3.3890106223253824e-01 2.0863995547015399e+00 -1.7474984924690014e+00  -3.8402521441150517e-01 2.5919131053076820e+00 -2.2078878908961777e+00  -3.1767297187526433e-01 0.0000000000000000e+00 3.1767297187526433e-01  -3.5997063666159734e-01 1.8140066669719171e-01 1.7856996996440569e-01  -4.0790017008256996e-01 4.0790017008256996e-01 0.0000000000000000e+00  -4.6221144673475906e-01 6.8428717179054677e-01 -2.2207572505578793e-01  -5.2375418585727196e-01 1.0149438732001130e+00 -4.9118968734284141e-01  -5.9349124549144283e-01 1.4035753926388852e+00 -8.1008414714744215e-01  -6.7251368673733269e-01 1.8528862549639082e+00 -1.1803725682265753e+00  -7.6205784379267638e-01 2.3642004278893674e+00 -1.6021425840966883e+00  -8.6352466684111318e-01 2.9370223257630363e+00 -2.0734976589219225e+00  -5.3292338523619442e-01 0.0000000000000000e+00 5.3292338523619442e-01  -6.0388130958353103e-01 2.0555388485321374e-01 3.9832742473031690e-01  -6.8428717179054677e-01 4.6221144673475906e-01 2.2207572505578793e-01  -7.7539895016793181e-01 7.7539895016793181e-01 0.0000000000000000e+00  -8.7864212089243343e-01 1.1500820798663622e+00 -2.7143995897392842e-01  -9.9563196008861499e-01 1.5904592849314159e+00 -5.9482732484279910e-01  -1.1281988153983071e+00 2.0995951935211381e+00 -9.7139637812283053e-01  -1.2784167424204174e+00 2.6789900576027637e+00 -1.4005733151823454e+00  -1.4486359540484279e+00 3.3280823050611126e+00 -1.8794463510126878e+00  -7.9043908322177292e-01 0.0000000000000000e+00 7.9043908322177292e-01  -8.9568482439631258e-01 2.3292306664329573e-01 6.6276175775301704e-01  -1.0149438732001130e+00 5.2375418585727196e-01 4.9118968734284141e-01  -1.1500820798663622e+00 8.7864212089243343e-01 2.7143995897392842e-01  -1.3032137297004460e+00 1.3032137297004460e+00 0.0000000000000000e+00  -1.4767346218255097e+00 1.8022264783858031e+00 -3.2549185656029506e-01  -1.6733595523118012e+00 2.3791530456050198e+00 -7.0579349329322116e-01  -1.8961647881267136e+00 3.0356934395539796e+00 -1.1395286514272653e+00  -2.1486361964255720e+00 3.7712113156590785e+00 -1.6225751192335067e+00  -1.0931056148869174e+00 0.0000000000000000e+00 1.0931056148869174e+00  -1.2386509365477740e+00 2.6393641265043183e-01 9.7471452389734192e-01  -1.4035753926388852e+00 5.9349124549144283e-01 8.1008414714744215e-01  -1.5904592849314159e+00 9.9563196008861499e-01 5.9482732484279910e-01  -1.8022264783858031e+00 1.4767346218255097e+00 3.2549185656029506e-01  -2.0421901460589491e+00 2.0421901460589491e+00 0.0000000000000000e+00  -2.3141046048750136e+00 2.6959335932365596e+00 -3.8182898836154555e-01  -2.6222240532489400e+00 3.4398913250157035e+00 -8.1766727176676390e-01  -2.9713691295336626e+00 4.2733422685271947e+00 -1.3019731389935374e+00  -1.4430292663081350e+00 0.0000000000000000e+00 1.4430292663081350e+00  -1.6351663808472212e+00 2.9907913770284422e-01 1.3360872431443760e+00  -1.8528862549639082e+00 6.7251368673733269e-01 1.1803725682265753e+00  -2.0995951935211381e+00 1.1281988153983071e+00 9.7139637812283053e-01  -2.3791530456050198e+00 1.6733595523118012e+00 7.0579349329322116e-01  -2.6959335932365596e+00 2.3141046048750136e+00 3.8182898836154555e-01  -3.0548929807468985e+00 3.0548929807468985e+00 0.0000000000000000e+00  -3.4616472554180526e+00 3.8979075336595419e+00 -4.3626027824148861e-01  -3.9225602325399915e+00 4.8423311810066760e+00 -9.1977094846668506e-01  -1.8412411445779877e+00 0.0000000000000000e+00 1.8412411445779877e+00  -2.0863995547015399e+00 3.3890106223253824e-01 1.7474984924690014e+00  -2.3642004278893674e+00 7.6205784379267638e-01 1.6021425840966883e+00  -2.6789900576027637e+00 1.2784167424204174e+00 1.4005733151823454e+00  -3.0356934395539796e+00 1.8961647881267136e+00 1.1395286514272653e+00  -3.4398913250157035e+00 2.6222240532489400e+00 8.1766727176676390e-01  -3.8979075336595419e+00 3.4616472554180526e+00 4.3626027824148861e-01  -4.4169078919638372e+00 4.4169078919638372e+00 0.0000000000000000e+00  -5.0050123451174775e+00 5.4870800869949719e+00 -4.8206774187749318e-01  -2.2873552872024510e+00 0.0000000000000000e+00 2.2873552872024510e+00  -2.5919131053076820e+00 3.8402521441150517e-01 2.2078878908961777e+00  -2.9370223257630363e+00 8.6352466684111318e-01 2.0734976589219225e+00  -3.3280823050611126e+00 1.4486359540484279e+00 1.8794463510126878e+00  -3.7712113156590785e+00 2.1486361964255720e+00 1.6225751192335067e+00  -4.2733422685271947e+00 2.9713691295336626e+00 1.3019731389935374e+00  -4.8423311810066760e+00 3.9225602325399915e+00 9.1977094846668506e-01  -5.4870800869949719e+00 5.0050123451174775e+00 4.8206774187749318e-01  -6.2176763124321415e+00 6.2176763124321415e+00 0.0000000000000000e+00  1.4127498127344787e-01 -1.4127498127344787e-01 0.0000000000000000e+00  1.6008552648705229e-01 0.0000000000000000e+00 -1.6008552648705229e-01  1.8140066669719171e-01 1.7856996996440569e-01 -3.5997063666159734e-01  2.0555388485321374e-01 3.9832742473031690e-01 -6.0388130958353103e-01  2.3292306664329573e-01 6.6276175775301704e-01 -8.9568482439631258e-01  2.6393641265043183e-01 9.7471452389734192e-01 -1.2386509365477740e+00  2.9907913770284422e-01 1.3360872431443760e+00 -1.6351663808472212e+00  3.3890106223253824e-01 1.7474984924690014e+00 -2.0863995547015399e+00  3.8402521441150517e-01 2.2078878908961777e+00 -2.5919131053076820e+00  0.0000000000000000e+00 -1.6008552648705229e-01 1.6008552648705229e-01  -3.4997116630807370e-03 -1.0502698159275145e-02 1.1804453720517596e-02  -7.6718084982284251e-03 1.8328892350919493e-01 -1.8367753454782720e-01  -6.2540386988512650e-03 4.2073891205513975e-01 -4.2541347618286829e-01  2.1257756215570861e-03 7.0547139392383762e-01 -7.1304691783757890e-01  1.3035710406316268e-02 1.0423220831045859e+00 -1.0477350061667485e+00  1.7796375754881882e-02 1.4378358335890622e+00 -1.4343558232381239e+00  1.0002557842247113e-02 1.9075205457610218e+00 -1.8932004625754846e+00  0.0000000000000000e+00 2.5018647481139817e+00 -2.5018647481139817e+00  -1.7856996996440569e-01 -1.8140066669719171e-01 3.5997063666159734e-01  -2.0940276705656719e-01 -2.3652722477350625e-02 2.1204624862729965e-01  -2.4522610448720977e-01 1.8135073522747244e-01 1.5998750053753723e-02  -2.7549453752234793e-01 4.2917078711982576e-01 -2.2867288012380030e-01  -2.9882238244206089e-01 7.2419240864715573e-01 -5.1979169804046743e-01  -3.2293120811885428e-01 1.0747414981467331e+00 -8.5725892038087548e-01  -3.6026501669374000e-01 1.4978260979618843e+00 -1.2475092655158262e+00  -4.1922874113835884e-01 2.0382681734101702e+00 -1.7183061687950136e+00  -4.8540350446272135e-01 2.8349841691077828e+00 -2.3495806646450612e+00  -3.9832742473031690e-01 -2.0555388485321374e-01 6.0388130958353103e-01  -4.6216326138223357e-01 -2.2370170616733628e-02 4.5282249297060650e-01  -5.3499589692958260e-01 2.0066674307691626e-01 2.5330982211836767e-01  -6.0318210841753639e-01 4.6450160832386694e-01 2.9531140596359222e-03  -6.6690128419724759e-01 7.7530033697133982e-01 -2.9533545367435465e-01  -7.3663201833677294e-01 1.1438309502783446e+00 -6.3962847843886406e-01  -8.2696285059819474e-01 1.5971678256617696e+00 -1.0344527278256754e+00  -9.4728252321574014e-01 2.2112672900998609e+00 -1.5053946582853976e+00  -1.0827662004213081e+00 3.2124579256934256e+00 -2.1296917252721164e+00  -6.6276175775301704e-01 -2.3292306664329573e-01 8.9568482439631258e-01  -7.6200330371166591e-01 -3.2576997174141508e-03 7.4309336694909700e-01  -8.7122503390455930e-01 2.5028265614002476e-01 5.4028023209541498e-01  -9.7794693518541409e-01 5.4443346460953879e-01 2.8426177027621458e-01  -1.0868162319306891e+00 8.8705739404307160e-01 -2.1449270905393066e-02  -1.2126481677199541e+00 1.2878811365443090e+00 -3.7244662118082728e-01  -1.3726886405376681e+00 1.7787188543121948e+00 -7.6933479141475336e-01  -1.5764007088842598e+00 2.4613222180110599e+00 -1.2329634756324406e+00  -1.8015732426976012e+00 3.6401917290417689e+00 -1.8386184863441710e+00  -9.7471452389734192e-01 -2.6393641265043183e-01 1.2386509365477740e+00  -1.1075269439178037e+00 2.3774522801818531e-02 1.0889771736872365e+00  -1.2461177923413278e+00 3.2158766571425795e-01 8.8510992219341467e-01  -1.3865486471907922e+00 6.6674066949979161e-01 6.2495490729509007e-01  -1.5412282995442597e+00 1.0669889435420374e+00 3.1252887803655927e-01  -1.7329568614411763e+00 1.5265964674452874e+00 -4.5053365158856634e-02  -1.9852128671125795e+00 2.0728737530407253e+00 -4.4333758737632389e-01  -2.3070171070361991e+00 2.8179866050627451e+00 -8.9702669261952261e-01  -2.6495487782452511e+00 4.1248776266303393e+00 -1.4753288483850864e+00  -1.3360872431443760e+00 -2.9907913770284422e-01 1.6351663808472212e+00  -1.4991836466665953e+00 3.8920601009188226e-02 1.4950728261740014e+00  -1.6601876252603822e+00 3.9360216436002787e-01 1.2948764497217733e+00  -1.8297644318724737e+00 8.1357600192735535e-01 1.0341754717615146e+00  -2.0282990389491689e+00 1.3046049475403472e+00 7.1676824929344718e-01  -2.2899617654744051e+00 1.8643359492537446e+00 3.5164258113501923e-01  -2.6531620686669295e+00 2.5060155138964677e+00 -5.1354790339803988e-02  -3.1349621614867447e+00 3.3208377260680932e+00 -4.9810027541869789e-01  -3.6318616742752994e+00 4.6740987017061295e+00 -1.0422370274308297e+00  -1.7474984924690014e+00 -3.3890106223253824e-01 2.0863995547015399e+00  -1.9481997057555520e+00 2.4353835569426323e-02 1.9650885039327046e+00  -2.1466117942115357e+00 4.4459036177405270e-01 1.7784248216184861e+00  -2.3633104623517300e+00 9.5626393655606334e-01 1.5267311577115075e+00  -2.6179103349175437e+00 1.5654144401151693e+00 1.2117113034090639e+00  -2.9487488314828441e+00 2.2717989594123038e+00 8.4114549700547592e-01  -3.4127819592390924e+00 3.0768629009905815e+00 4.2663968543311631e-01  -4.0620753184710834e+00 4.0120658016168047e+00 -2.7990212058872695e-02  -4.7501933973380632e+00 5.2964477133199619e+00 -5.4625431598189911e-01  -2.2078878908961777e+00 -3.8402521441150517e-01 2.5919131053076820e+00  -2.5018647481139817e+00 0.0000000000000000e+00 2.5018647481139817e+00  -2.8349841691077828e+00 4.8540350446272135e-01 2.3495806646450612e+00  -3.2124579256934256e+00 1.0827662004213081e+00 2.1296917252721164e+00  -3.6401917290417689e+00 1.8015732426976012e+00 1.8386184863441710e+00  -4.1248776266303393e+00 2.6495487782452511e+00 1.4753288483850864e+00  -4.6740987017061295e+00 3.6318616742752994e+00 1.0422370274308297e+00  -5.2964477133199619e+00 4.7501933973380632e+00 5.4625431598189911e-01  -6.0016615330978409e+00 6.0016615330978409e+00 0.0000000000000000e+00  3.1767297187526433e-01 -3.1767297187526433e-01 0.0000000000000000e+00  3.5997063666159734e-01 -1.7856996996440569e-01 -1.8140066669719171e-01  4.0790017008256996e-01 0.0000000000000000e+00 -4.0790017008256996e-01  4.6221144673475906e-01 2.2207572505578793e-01 -6.8428717179054677e-01  5.2375418585727196e-01 4.9118968734284141e-01 -1.0149438732001130e+00  5.9349124549144283e-01 8.1008414714744215e-01 -1.4035753926388852e+00  6.7251368673733269e-01 1.1803725682265753e+00 -1.8528862549639082e+00  7.6205784379267638e-01 1.6021425840966883e+00 -2.3642004278893674e+00  8.6352466684111318e-01 2.0734976589219225e+00 -2.9370223257630363e+00  1.7856996996440569e-01 -3.5997063666159734e-01 1.8140066669719171e-01  1.9501550476267518e-01 -2.1480291120733852e-01 3.7892010564938010e-02  2.1194916655268137e-01 -2.1751530249280261e-02 -1.7199223181666745e-01  2.3898858802162135e-01 2.1674345367946213e-01 -4.3297041028732658e-01  2.7872904582020064e-01 5.0459864607764349e-01 -7.3882925301063207e-01  3.2852940594427682e-01 8.4794930976776794e-01 -1.0901406374471840e+00  3.8178086127123995e-01 1.2556904772103947e+00 -1.5007102681388307e+00  4.3335879842727920e-01 1.7453454360132583e+00 -2.0231940734022453e+00  4.8540350446272135e-01 2.3495806646450612e+00 -2.8349841691077828e+00  0.0000000000000000e+00 -4.0790017008256996e-01 4.0790017008256996e-01  -1.5248406560672650e-02 -2.5536915315740633e-01 2.6349357316365785e-01  -3.7031452306819188e-02 -5.2427966293137590e-02 5.1816311008823140e-02  -4.7638324480158069e-02 1.9410121391475316e-01 -2.1355812321649442e-01  -4.3602575066713035e-02 4.8947760771425564e-01 -5.2146166058129340e-01  -2.9938801211768583e-02 8.4528510338918861e-01 -8.6970463486803407e-01  -1.5123434074557093e-02 1.2841183237670455e+00 -1.2769869771349907e+00  -4.4499176782199371e-03 1.8548055308363869e+00 -1.8143022643355624e+00  0.0000000000000000e+00 2.6624236954982767e+00 -2.6624236954982767e+00  -2.2207572505578793e-01 -4.6221144673475906e-01 6.8428717179054677e-01  -2.7382021384317895e-01 -2.8041163338529118e-01 5.2372966525948894e-01  -3.3889946857873893e-01 -5.9931564306773669e-02 2.9843488131745277e-01  -3.9330487024527722e-01 1.9997551638598146e-01 1.7433465530442470e-02  -4.3407152719027359e-01 5.0760603872601584e-01 -3.0556868862957642e-01  -4.6792615824690198e-01 8.7839580727969413e-01 -6.6386939004623502e-01  -5.0336142633839553e-01 1.3475248781793163e+00 -1.0725304443881041e+00  -5.4528287275680964e-01 1.9982824050545895e+00 -1.5992426571101011e+00  -6.0366440796101550e-01 3.0169212919623356e+00 -2.4132568840013189e+00  -4.9118968734284141e-01 -5.2375418585727196e-01 1.0149438732001130e+00  -5.7929947321186348e-01 -2.8815562820890850e-01 8.3638867400681094e-01  -6.8284121533734299e-01 -3.6407909786204645e-02 5.9363254328829185e-01  -7.7833174484200462e-01 2.5163287088345271e-01 2.9252091578738937e-01  -8.6714847920354043e-01 5.8737740463402244e-01 -5.0670444530844037e-02  -9.6004191128138794e-01 9.8568357766279147e-01 -4.2276605801174111e-01  -1.0665003301217311e+00 1.4885732532914777e+00 -8.3011260500182837e-01  -1.1895381334231290e+00 2.2108856097689373e+00 -1.3304676105441526e+00  -1.3351920014305254e+00 3.4186196950114893e+00 -2.0834276935809655e+00  -8.1008414714744215e-01 -5.9349124549144283e-01 1.4035753926388852e+00  -9.2906382941903209e-01 -2.9343676719021689e-01 1.2140478580565490e+00  -1.0576301129495338e+00 4.1661224679917976e-03 9.5633559377089150e-01  -1.1838336501558102e+00 3.4316536587509083e-01 6.3515908711034919e-01  -1.3182488252378042e+00 7.3549894228626511e-01 2.6957496523930419e-01  -1.4808226528146822e+00 1.1897207921227251e+00 -1.1965788020589857e-01  -1.6867600098128708e+00 1.7439452440528538e+00 -5.2701216214525726e-01  -1.9351038776986886e+00 2.5285871371662747e+00 -9.9577857375094159e-01  -2.2020370167136343e+00 3.8738036190260541e+00 -1.6717666023124222e+00  -1.1803725682265753e+00 -6.7251368673733269e-01 1.8528862549639082e+00  -1.3244331973717172e+00 -3.2264677830648530e-01 1.6675502534435300e+00  -1.4665093130437388e+00 3.3183366485727887e-02 1.4047605667163965e+00  -1.6145505544071344e+00 4.5036641438184122e-01 1.0699991356984226e+00  -1.7892533291248893e+00 9.3797858395732081e-01 6.8344715466333106e-01  -2.0247563020413741e+00 1.4958695018631949e+00 2.7176999075768354e-01  -2.3528557025658268e+00 2.1455745374582582e+00 -1.4620788310846233e-01  -2.7769445559454580e+00 2.9967825691707506e+00 -5.9157633475636162e-01  -3.2085853030218354e+00 4.3895945783840489e+00 -1.1810092753622130e+00  -1.6021425840966883e+00 -7.6205784379267638e-01 2.3642004278893674e+00  -1.7819289777289196e+00 -3.9673875701208405e-01 2.2068442106130726e+00  -1.9569910283002536e+00 2.4602601927812356e-02 1.9622242869226443e+00  -2.1485456357042656e+00 5.3869501435165812e-01 1.6370898560194511e+00  -2.3771251180078647e+00 1.1534166839560762e+00 1.2460737340562700e+00  -2.6829034102287745e+00 1.8689093587516412e+00 8.1270961686839494e-01  -3.1193753485551818e+00 2.6894995524329848e+00 3.6284140531871523e-01  -3.7241032394290743e+00 3.6569611808304421e+00 -9.6341640320239563e-02  -4.3550750729504450e+00 4.9740623060864166e+00 -6.1898723313596715e-01  -2.0734976589219225e+00 -8.6352466684111318e-01 2.9370223257630363e+00  -2.3495806646450612e+00 -4.8540350446272135e-01 2.8349841691077828e+00  -2.6624236954982767e+00 0.0000000000000000e+00 2.6624236954982767e+00  -3.0169212919623356e+00 6.0366440796101550e-01 2.4132568840013189e+00  -3.4186196950114893e+00 1.3351920014305254e+00 2.0834276935809655e+00  -3.8738036190260541e+00 2.2020370167136343e+00 1.6717666023124222e+00  -4.3895945783840489e+00 3.2085853030218354e+00 1.1810092753622130e+00  -4.9740623060864166e+00 4.3550750729504450e+00 6.1898723313596715e-01  -5.6363510075998340e+00 5.6363510075998340e+00 0.0000000000000000e+00  5.3292338523619442e-01 -5.3292338523619442e-01 0.0000000000000000e+00  6.0388130958353103e-01 -3.9832742473031690e-01 -2.0555388485321374e-01  6.8428717179054677e-01 -2.2207572505578793e-01 -4.6221144673475906e-01  7.7539895016793181e-01 0.0000000000000000e+00 -7.7539895016793181e-01  8.7864212089243343e-01 2.7143995897392842e-01 -1.1500820798663622e+00  9.9563196008861499e-01 5.9482732484279910e-01 -1.5904592849314159e+00  1.1281988153983071e+00 9.7139637812283053e-01 -2.0995951935211381e+00  1.2784167424204174e+00 1.4005733151823454e+00 -2.6789900576027637e+00  1.4486359540484279e+00 1.8794463510126878e+00 -3.3280823050611126e+00  3.9832742473031690e-01 -6.0388130958353103e-01 2.0555388485321374e-01  4.4478764270248689e-01 -4.6362214750217212e-01 6.7042818157788620e-02  4.9547041922661694e-01 -2.6952838045771305e-01 -1.6314060393082544e-01  5.5963848145457795e-01 -2.6422612445560482e-02 -4.5095386805337490e-01  6.4064258848818190e-01 2.6972844652144112e-01 -7.8507290189555090e-01  7.3780718999141415e-01 6.2519673863751091e-01 -1.1676132389797129e+00  8.4654581649838834e-01 1.0475673469417479e+00 -1.6213853522580035e+00  9.6138020229731957e-01 1.5470702593166616e+00 -2.2220251128537205e+00  1.0827662004213081e+00 2.1296917252721164e+00 -3.2124579256934256e+00  2.2207572505578793e-01 -6.8428717179054677e-01 4.6221144673475906e-01  2.3285325983508812e-01 -5.3458555217593440e-01 3.2509777002588325e-01  2.3796030295693157e-01 -3.2468194971148168e-01 9.1627184336543946e-02  2.5815177947056162e-01 -6.4954089528980977e-02 -2.0368972711681912e-01  2.9855955173334114e-01 2.4995508800509511e-01 -5.4138580139860448e-01  3.5806351606707065e-01 6.3139284147106367e-01 -9.1975008107493206e-01  4.3299752451261181e-01 1.0972020939756157e+00 -1.3685911245613167e+00  5.1926374098976980e-01 1.6761438245551314e+00 -1.9873129462786165e+00  6.0366440796101550e-01 2.4132568840013189e+00 -3.0169212919623356e+00  0.0000000000000000e+00 -7.7539895016793181e-01 7.7539895016793181e-01  -3.0543138447110551e-02 -5.9231914431858668e-01 6.1362047721489021e-01  -7.7613527296745810e-02 -3.5982720755799857e-01 3.5784772196280307e-01  -1.0972721230843549e-01 -7.9535335937968757e-02 3.7509003496792502e-02  -1.2022587413211476e-01 2.5736734691802221e-01 -3.2340168721272511e-01  -1.0945529296717085e-01 6.6519439215688470e-01 -7.1644766554313344e-01  -7.8379269861170164e-02 1.1700365497626735e+00 -1.1661770889969370e+00  -3.0980593846670630e-02 1.8236621974732641e+00 -1.7661752746020389e+00  0.0000000000000000e+00 2.73457830