<?xml version="1.0"?>
<VTKFile type="UnstructuredGrid"  version="0.1"  >
<UnstructuredGrid>
<Piece  NumberOfPoints="4225" NumberOfCells="8192">
<Points>
<DataArray  type="Float64"  NumberOfComponents="3"  format="ascii">0 0 0  0.015625 0 0  0.03125 0 0  0.046875 0 0  0.0625 0 0  0.078125 0 0  0.09375 0 0  0.109375 0 0  0.125 0 0  0.140625 0 0  0.15625 0 0  0.171875 0 0  0.1875 0 0  0.203125 0 0  0.21875 0 0  0.234375 0 0  0.25 0 0  0.265625 0 0  0.28125 0 0  0.296875 0 0  0.3125 0 0  0.328125 0 0  0.34375 0 0  0.359375 0 0  0.375 0 0  0.390625 0 0  0.40625 0 0  0.421875 0 0  0.4375 0 0  0.453125 0 0  0.46875 0 0  0.484375 0 0  0.5 0 0  0.515625 0 0  0.53125 0 0  0.546875 0 0  0.5625 0 0  0.578125 0 0  0.59375 0 0  0.609375 0 0  0.625 0 0  0.640625 0 0  0.65625 0 0  0.671875 0 0  0.6875 0 0  0.703125 0 0  0.71875 0 0  0.734375 0 0  0.75 0 0  0.765625 0 0  0.78125 0 0  0.796875 0 0  0.8125 0 0  0.828125 0 0  0.84375 0 0  0.859375 0 0  0.875 0 0  0.890625 0 0  0.90625 0 0  0.921875 0 0  0.9375 0 0  0.953125 0 0  0.96875 0 0  0.984375 0 0  1 0 0  0 0.015625 0  0.015625 0.015625 0  0.03125 0.015625 0  0.046875 0.015625 0  0.0625 0.015625 0  0.078125 0.015625 0  0.09375 0.015625 0  0.109375 0.015625 0  0.125 0.015625 0  0.140625 0.015625 0  0.15625 0.015625 0  0.171875 0.015625 0  0.1875 0.015625 0  0.203125 0.015625 0  0.21875 0.015625 0  0.234375 0.015625 0  0.25 0.015625 0  0.265625 0.015625 0  0.28125 0.015625 0  0.296875 0.015625 0  0.3125 0.015625 0  0.328125 0.015625 0  0.34375 0.015625 0  0.359375 0.015625 0  0.375 0.015625 0  0.390625 0.015625 0  0.40625 0.015625 0  0.421875 0.015625 0  0.4375 0.015625 0  0.453125 0.015625 0  0.46875 0.015625 0  0.484375 0.015625 0  0.5 0.015625 0  0.515625 0.015625 0  0.53125 0.015625 0  0.546875 0.015625 0  0.5625 0.015625 0  0.578125 0.015625 0  0.59375 0.015625 0  0.609375 0.015625 0  0.625 0.015625 0  0.640625 0.015625 0  0.65625 0.015625 0  0.671875 0.015625 0  0.6875 0.015625 0  0.703125 0.015625 0  0.71875 0.015625 0  0.734375 0.015625 0  0.75 0.015625 0  0.765625 0.015625 0  0.78125 0.015625 0  0.796875 0.015625 0  0.8125 0.015625 0  0.828125 0.015625 0  0.84375 0.015625 0  0.859375 0.015625 0  0.875 0.015625 0  0.890625 0.015625 0  0.90625 0.015625 0  0.921875 0.015625 0  0.9375 0.015625 0  0.953125 0.015625 0  0.96875 0.015625 0  0.984375 0.015625 0  1 0.015625 0  0 0.03125 0  0.015625 0.03125 0  0.03125 0.03125 0  0.046875 0.03125 0  0.0625 0.03125 0  0.078125 0.03125 0  0.09375 0.03125 0  0.109375 0.03125 0  0.125 0.03125 0  0.140625 0.03125 0  0.15625 0.03125 0  0.171875 0.03125 0  0.1875 0.03125 0  0.203125 0.03125 0  0.21875 0.03125 0  0.234375 0.03125 0  0.25 0.03125 0  0.265625 0.03125 0  0.28125 0.03125 0  0.296875 0.03125 0  0.3125 0.03125 0  0.328125 0.03125 0  0.34375 0.03125 0  0.359375 0.03125 0  0.375 0.03125 0  0.390625 0.03125 0  0.40625 0.03125 0  0.421875 0.03125 0  0.4375 0.03125 0  0.453125 0.03125 0  0.46875 0.03125 0  0.484375 0.03125 0  0.5 0.03125 0  0.515625 0.03125 0  0.53125 0.03125 0  0.546875 0.03125 0  0.5625 0.03125 0  0.578125 0.03125 0  0.59375 0.03125 0  0.609375 0.03125 0  0.625 0.03125 0  0.640625 0.03125 0  0.65625 0.03125 0  0.671875 0.03125 0  0.6875 0.03125 0  0.703125 0.03125 0  0.71875 0.03125 0  0.734375 0.03125 0  0.75 0.03125 0  0.765625 0.03125 0  0.78125 0.03125 0  0.796875 0.03125 0  0.8125 0.03125 0  0.828125 0.03125 0  0.84375 0.03125 0  0.859375 0.03125 0  0.875 0.03125 0  0.890625 0.03125 0  0.90625 0.03125 0  0.921875 0.03125 0  0.9375 0.03125 0  0.953125 0.03125 0  0.96875 0.03125 0  0.984375 0.03125 0  1 0.03125 0  0 0.046875 0  0.015625 0.046875 0  0.03125 0.046875 0  0.046875 0.046875 0  0.0625 0.046875 0  0.078125 0.046875 0  0.09375 0.046875 0  0.109375 0.046875 0  0.125 0.046875 0  0.140625 0.046875 0  0.15625 0.046875 0  0.171875 0.046875 0  0.1875 0.046875 0  0.203125 0.046875 0  0.21875 0.046875 0  0.234375 0.046875 0  0.25 0.046875 0  0.265625 0.046875 0  0.28125 0.046875 0  0.296875 0.046875 0  0.3125 0.046875 0  0.328125 0.046875 0  0.34375 0.046875 0  0.359375 0.046875 0  0.375 0.046875 0  0.390625 0.046875 0  0.40625 0.046875 0  0.421875 0.046875 0  0.4375 0.046875 0  0.453125 0.046875 0  0.46875 0.046875 0  0.484375 0.046875 0  0.5 0.046875 0  0.515625 0.046875 0  0.53125 0.046875 0  0.546875 0.046875 0  0.5625 0.046875 0  0.578125 0.046875 0  0.59375 0.046875 0  0.609375 0.046875 0  0.625 0.046875 0  0.640625 0.046875 0  0.65625 0.046875 0  0.671875 0.046875 0  0.6875 0.046875 0  0.703125 0.046875 0  0.71875 0.046875 0  0.734375 0.046875 0  0.75 0.046875 0  0.765625 0.046875 0  0.78125 0.046875 0  0.796875 0.046875 0  0.8125 0.046875 0  0.828125 0.046875 0  0.84375 0.046875 0  0.859375 0.046875 0  0.875 0.046875 0  0.890625 0.046875 0  0.90625 0.046875 0  0.921875 0.046875 0  0.9375 0.046875 0  0.953125 0.046875 0  0.96875 0.046875 0  0.984375 0.046875 0  1 0.046875 0  0 0.0625 0  0.015625 0.0625 0  0.03125 0.0625 0  0.046875 0.0625 0  0.0625 0.0625 0  0.078125 0.0625 0  0.09375 0.0625 0  0.109375 0.0625 0  0.125 0.0625 0  0.140625 0.0625 0  0.15625 0.0625 0  0.171875 0.0625 0  0.1875 0.0625 0  0.203125 0.0625 0  0.21875 0.0625 0  0.234375 0.0625 0  0.25 0.0625 0  0.265625 0.0625 0  0.28125 0.0625 0  0.296875 0.0625 0  0.3125 0.0625 0  0.328125 0.0625 0  0.34375 0.0625 0  0.359375 0.0625 0  0.375 0.0625 0  0.390625 0.0625 0  0.40625 0.0625 0  0.421875 0.0625 0  0.4375 0.0625 0  0.453125 0.0625 0  0.46875 0.0625 0  0.484375 0.0625 0  0.5 0.0625 0  0.515625 0.0625 0  0.53125 0.0625 0  0.546875 0.0625 0  0.5625 0.0625 0  0.578125 0.0625 0  0.59375 0.0625 0  0.609375 0.0625 0  0.625 0.0625 0  0.640625 0.0625 0  0.65625 0.0625 0  0.671875 0.0625 0  0.6875 0.0625 0  0.703125 0.0625 0  0.71875 0.0625 0  0.734375 0.0625 0  0.75 0.0625 0  0.765625 0.0625 0  0.78125 0.0625 0  0.796875 0.0625 0  0.8125 0.0625 0  0.828125 0.0625 0  0.84375 0.0625 0  0.859375 0.0625 0  0.875 0.0625 0  0.890625 0.0625 0  0.90625 0.0625 0  0.921875 0.0625 0  0.9375 0.0625 0  0.953125 0.0625 0  0.96875 0.0625 0  0.984375 0.0625 0  1 0.0625 0  0 0.078125 0  0.015625 0.078125 0  0.03125 0.078125 0  0.046875 0.078125 0  0.0625 0.078125 0  0.078125 0.078125 0  0.09375 0.078125 0  0.109375 0.078125 0  0.125 0.078125 0  0.140625 0.078125 0  0.15625 0.078125 0  0.171875 0.078125 0  0.1875 0.078125 0  0.203125 0.078125 0  0.21875 0.078125 0  0.234375 0.078125 0  0.25 0.078125 0  0.265625 0.078125 0  0.28125 0.078125 0  0.296875 0.078125 0  0.3125 0.078125 0  0.328125 0.078125 0  0.34375 0.078125 0  0.359375 0.078125 0  0.375 0.078125 0  0.390625 0.078125 0  0.40625 0.078125 0  0.421875 0.078125 0  0.4375 0.078125 0  0.453125 0.078125 0  0.46875 0.078125 0  0.484375 0.078125 0  0.5 0.078125 0  0.515625 0.078125 0  0.53125 0.078125 0  0.546875 0.078125 0  0.5625 0.078125 0  0.578125 0.078125 0  0.59375 0.078125 0  0.609375 0.078125 0  0.625 0.078125 0  0.640625 0.078125 0  0.65625 0.078125 0  0.671875 0.078125 0  0.6875 0.078125 0  0.703125 0.078125 0  0.71875 0.078125 0  0.734375 0.078125 0  0.75 0.078125 0  0.765625 0.078125 0  0.78125 0.078125 0  0.796875 0.078125 0  0.8125 0.078125 0  0.828125 0.078125 0  0.84375 0.078125 0  0.859375 0.078125 0  0.875 0.078125 0  0.890625 0.078125 0  0.90625 0.078125 0  0.921875 0.078125 0  0.9375 0.078125 0  0.953125 0.078125 0  0.96875 0.078125 0  0.984375 0.078125 0  1 0.078125 0  0 0.09375 0  0.015625 0.09375 0  0.03125 0.09375 0  0.046875 0.09375 0  0.0625 0.09375 0  0.078125 0.09375 0  0.09375 0.09375 0  0.109375 0.09375 0  0.125 0.09375 0  0.140625 0.09375 0  0.15625 0.09375 0  0.171875 0.09375 0  0.1875 0.09375 0  0.203125 0.09375 0  0.21875 0.09375 0  0.234375 0.09375 0  0.25 0.09375 0  0.265625 0.09375 0  0.28125 0.09375 0  0.296875 0.09375 0  0.3125 0.09375 0  0.328125 0.09375 0  0.34375 0.09375 0  0.359375 0.09375 0  0.375 0.09375 0  0.390625 0.09375 0  0.40625 0.09375 0  0.421875 0.09375 0  0.4375 0.09375 0  0.453125 0.09375 0  0.46875 0.09375 0  0.484375 0.09375 0  0.5 0.09375 0  0.515625 0.09375 0  0.53125 0.09375 0  0.546875 0.09375 0  0.5625 0.09375 0  0.578125 0.09375 0  0.59375 0.09375 0  0.609375 0.09375 0  0.625 0.09375 0  0.640625 0.09375 0  0.65625 0.09375 0  0.671875 0.09375 0  0.6875 0.09375 0  0.703125 0.09375 0  0.71875 0.09375 0  0.734375 0.09375 0  0.75 0.09375 0  0.765625 0.09375 0  0.78125 0.09375 0  0.796875 0.09375 0  0.8125 0.09375 0  0.828125 0.09375 0  0.84375 0.09375 0  0.859375 0.09375 0  0.875 0.09375 0  0.890625 0.09375 0  0.90625 0.09375 0  0.921875 0.09375 0  0.9375 0.09375 0  0.953125 0.09375 0  0.96875 0.09375 0  0.984375 0.09375 0  1 0.09375 0  0 0.109375 0  0.015625 0.109375 0  0.03125 0.109375 0  0.046875 0.109375 0  0.0625 0.109375 0  0.078125 0.109375 0  0.09375 0.109375 0  0.109375 0.109375 0  0.125 0.109375 0  0.140625 0.109375 0  0.15625 0.109375 0  0.171875 0.109375 0  0.1875 0.109375 0  0.203125 0.109375 0  0.21875 0.109375 0  0.234375 0.109375 0  0.25 0.109375 0  0.265625 0.109375 0  0.28125 0.109375 0  0.296875 0.109375 0  0.3125 0.109375 0  0.328125 0.109375 0  0.34375 0.109375 0  0.359375 0.109375 0  0.375 0.109375 0  0.390625 0.109375 0  0.40625 0.109375 0  0.421875 0.109375 0  0.4375 0.109375 0  0.453125 0.109375 0  0.46875 0.109375 0  0.484375 0.109375 0  0.5 0.109375 0  0.515625 0.109375 0  0.53125 0.109375 0  0.546875 0.109375 0  0.5625 0.109375 0  0.578125 0.109375 0  0.59375 0.109375 0  0.609375 0.109375 0  0.625 0.109375 0  0.640625 0.109375 0  0.65625 0.109375 0  0.671875 0.109375 0  0.6875 0.109375 0  0.703125 0.109375 0  0.71875 0.109375 0  0.734375 0.109375 0  0.75 0.109375 0  0.765625 0.109375 0  0.78125 0.109375 0  0.796875 0.109375 0  0.8125 0.109375 0  0.828125 0.109375 0  0.84375 0.109375 0  0.859375 0.109375 0  0.875 0.109375 0  0.890625 0.109375 0  0.90625 0.109375 0  0.921875 0.109375 0  0.9375 0.109375 0  0.953125 0.109375 0  0.96875 0.109375 0  0.984375 0.109375 0  1 0.109375 0  0 0.125 0  0.015625 0.125 0  0.03125 0.125 0  0.046875 0.125 0  0.0625 0.125 0  0.078125 0.125 0  0.09375 0.125 0  0.109375 0.125 0  0.125 0.12
[...]
<PointData  Vectors="f_1117"> 
<DataArray  type="Float64"  Name="f_1117"  NumberOfComponents="3" format="ascii">0.0000000000000000e+00 1.0000000003148419e+00 0.0000000000000000e+00  0.0000000000000000e+00 1.0157477089064850e+00 0.0000000000000000e+00  0.0000000000000000e+00 1.0317434078239385e+00 0.0000000000000000e+00  0.0000000000000000e+00 1.0479910023465842e+00 0.0000000000000000e+00  0.0000000000000000e+00 1.0644944592530066e+00 0.0000000000000000e+00  0.0000000000000000e+00 1.0812578077894643e+00 0.0000000000000000e+00  0.0000000000000000e+00 1.0982851406536120e+00 0.0000000000000000e+00  0.0000000000000000e+00 1.1155806149937124e+00 0.0000000000000000e+00  0.0000000000000000e+00 1.1331484534235892e+00 0.0000000000000000e+00  0.0000000000000000e+00 1.1509929450535579e+00 0.0000000000000000e+00  0.0000000000000000e+00 1.1691184465375917e+00 0.0000000000000000e+00  0.0000000000000000e+00 1.1875293831369844e+00 0.0000000000000000e+00  0.0000000000000000e+00 1.2062302498007524e+00 0.0000000000000000e+00  0.0000000000000000e+00 1.2252256122630598e+00 0.0000000000000000e+00  0.0000000000000000e+00 1.2445201081579225e+00 0.0000000000000000e+00  0.0000000000000000e+00 1.2641184481514640e+00 0.0000000000000000e+00  0.0000000000000000e+00 1.2840254170920065e+00 0.0000000000000000e+00  0.0000000000000000e+00 1.3042458751782684e+00 0.0000000000000000e+00  0.0000000000000000e+00 1.3247847591459634e+00 0.0000000000000000e+00  0.0000000000000000e+00 1.3456470834730769e+00 0.0000000000000000e+00  0.0000000000000000e+00 1.3668379416041343e+00 0.0000000000000000e+00  0.0000000000000000e+00 1.3883625071937411e+00 0.0000000000000000e+00  0.0000000000000000e+00 1.4102260353697094e+00 0.0000000000000000e+00  0.0000000000000000e+00 1.4324338640160685e+00 0.0000000000000000e+00  0.0000000000000000e+00 1.4549914150762937e+00 0.0000000000000000e+00  0.0000000000000000e+00 1.4779041958770438e+00 0.0000000000000000e+00  0.0000000000000000e+00 1.5011778004727565e+00 0.0000000000000000e+00  0.0000000000000000e+00 1.5248179110114040e+00 0.0000000000000000e+00  0.0000000000000000e+00 1.5488302991217697e+00 0.0000000000000000e+00  0.0000000000000000e+00 1.5732208273225690e+00 0.0000000000000000e+00  0.0000000000000000e+00 1.5979954504537490e+00 0.0000000000000000e+00  0.0000000000000000e+00 1.6231602171303448e+00 0.0000000000000000e+00  0.0000000000000000e+00 1.6487212712192150e+00 0.0000000000000000e+00  0.0000000000000000e+00 1.6746848533390448e+00 0.0000000000000000e+00  0.0000000000000000e+00 1.7010573023839639e+00 0.0000000000000000e+00  0.0000000000000000e+00 1.7278450570711614e+00 0.0000000000000000e+00  0.0000000000000000e+00 1.7550546575128629e+00 0.0000000000000000e+00  0.0000000000000000e+00 1.7826927468130818e+00 0.0000000000000000e+00  0.0000000000000000e+00 1.8107660726894916e+00 0.0000000000000000e+00  0.0000000000000000e+00 1.8392814891208624e+00 0.0000000000000000e+00  0.0000000000000000e+00 1.8682459580204251e+00 0.0000000000000000e+00  0.0000000000000000e+00 1.8976665509355839e+00 0.0000000000000000e+00  0.0000000000000000e+00 1.9275504507744192e+00 0.0000000000000000e+00  0.0000000000000000e+00 1.9579049535593485e+00 0.0000000000000000e+00  0.0000000000000000e+00 1.9887374702084308e+00 0.0000000000000000e+00  0.0000000000000000e+00 2.0200555283446930e+00 0.0000000000000000e+00  0.0000000000000000e+00 2.0518667741339907e+00 0.0000000000000000e+00  0.0000000000000000e+00 2.0841789741517549e+00 0.0000000000000000e+00  0.0000000000000000e+00 2.1170000172791945e+00 0.0000000000000000e+00  0.0000000000000000e+00 2.1503379166293164e+00 0.0000000000000000e+00  0.0000000000000000e+00 2.1842008115032958e+00 0.0000000000000000e+00  0.0000000000000000e+00 2.2185969693776526e+00 0.0000000000000000e+00  0.0000000000000000e+00 2.2535347879227148e+00 0.0000000000000000e+00  0.0000000000000000e+00 2.2890227970528807e+00 0.0000000000000000e+00  0.0000000000000000e+00 2.3250696610091510e+00 0.0000000000000000e+00  0.0000000000000000e+00 2.3616841804744668e+00 0.0000000000000000e+00  0.0000000000000000e+00 2.3988752947223646e+00 0.0000000000000000e+00  0.0000000000000000e+00 2.4366520837994519e+00 0.0000000000000000e+00  0.0000000000000000e+00 2.4750237707422644e+00 0.0000000000000000e+00  0.0000000000000000e+00 2.5139997238290350e+00 0.0000000000000000e+00  0.0000000000000000e+00 2.5535894588669033e+00 0.0000000000000000e+00  0.0000000000000000e+00 2.5938026415151727e+00 0.0000000000000000e+00  0.0000000000000000e+00 2.6346490896451300e+00 0.0000000000000000e+00  0.0000000000000000e+00 2.6761387757370372e+00 0.0000000000000000e+00  0.0000000000000000e+00 2.7182818293148743e+00 0.0000000000000000e+00  1.5624364229802574e-02 9.9987793248580981e-01 0.0000000000000000e+00  1.5870844130953576e-02 1.0156232701831547e+00 0.0000000000000000e+00  1.6126922919228827e-02 1.0316125284148963e+00 0.0000000000000000e+00  1.6395737236753079e-02 1.0478533037734319e+00 0.0000000000000000e+00  1.6676946560607503e-02 1.0643505628267476e+00 0.0000000000000000e+00  1.6969271550350096e-02 1.0811085513230418e+00 0.0000000000000000e+00  1.7271214367627453e-02 1.0981313437739666e+00 0.0000000000000000e+00  1.7581343958747490e-02 1.1154230063279811e+00 0.0000000000000000e+00  1.7898390798620267e-02 1.1329876577109590e+00 0.0000000000000000e+00  1.8221263131700555e-02 1.1508294881738392e+00 0.0000000000000000e+00  1.8549038776195393e-02 1.1689527660139456e+00 0.0000000000000000e+00  1.8880948247922049e-02 1.1873618396907286e+00 0.0000000000000000e+00  1.9216356107184560e-02 1.2060611381314996e+00 0.0000000000000000e+00  1.9554743244284030e-02 1.2250551705415185e+00 0.0000000000000000e+00  1.9895691057310379e-02 1.2443485261122413e+00 0.0000000000000000e+00  2.0238867723562363e-02 1.2639458739451870e+00 0.0000000000000000e+00  2.0584016467359759e-02 1.2838519630625653e+00 0.0000000000000000e+00  2.0930945623974882e-02 1.3040716226694391e+00 0.0000000000000000e+00  2.1279520273202290e-02 1.3246097625027409e+00 0.0000000000000000e+00  2.1629655230237022e-02 1.3454713733870824e+00 0.0000000000000000e+00  2.1981309205147955e-02 1.3666615278517313e+00 0.0000000000000000e+00  2.2334479961619465e-02 1.3881853809115581e+00 0.0000000000000000e+00  2.2689200335476261e-02 1.4100481708852324e+00 0.0000000000000000e+00  2.3045534986272771e-02 1.4322552203486145e+00 0.0000000000000000e+00  2.3403577780596714e-02 1.4548119371091042e+00 0.0000000000000000e+00  2.3763449710193233e-02 1.4777238152973162e+00 0.0000000000000000e+00  2.4125297267328913e-02 1.5009964364709634e+00 0.0000000000000000e+00  2.4489291201169560e-02 1.5246354708233651e+00 0.0000000000000000e+00  2.4855625593033597e-02 1.5486466784002979e+00 0.0000000000000000e+00  2.5224517186577387e-02 1.5730359104130862e+00 0.0000000000000000e+00  2.5596204919628038e-02 1.5978091105594108e+00 0.0000000000000000e+00  2.5970949601526336e-02 1.6229723164346621e+00 0.0000000000000000e+00  2.6349033686349169e-02 1.6485316609532681e+00 0.0000000000000000e+00  2.6730761089408799e-02 1.6744933738561223e+00 0.0000000000000000e+00  2.7116456999491174e-02 1.7008637832310924e+00 0.0000000000000000e+00  2.7506467634688357e-02 1.7276493171184286e+00 0.0000000000000000e+00  2.7901159891526833e-02 1.7548565051337717e+00 0.0000000000000000e+00  2.8300920834830552e-02 1.7824919801738623e+00 0.0000000000000000e+00  2.8706156976923865e-02 1.8105624801444242e+00 0.0000000000000000e+00  2.9117293288954859e-02 1.8390748497737448e+00 0.0000000000000000e+00  2.9534771886131704e-02 1.8680360424529845e+00 0.0000000000000000e+00  2.9959050326861945e-02 1.8974531221628375e+00 0.0000000000000000e+00  3.0390599463674426e-02 1.9273332654321294e+00 0.0000000000000000e+00  3.0829900775798686e-02 1.9576837633912147e+00 0.0000000000000000e+00  3.1277443110539802e-02 1.9885120238610958e+00 0.0000000000000000e+00  3.1733718756559393e-02 2.0198255735438471e+00 0.0000000000000000e+00  3.2199218766069265e-02 2.0516320602559022e+00 0.0000000000000000e+00  3.2674427426317175e-02 2.0839392552830280e+00 0.0000000000000000e+00  3.3159815773887442e-02 2.1167550557843988e+00 0.0000000000000000e+00  3.3655834029281219e-02 2.1500874873449907e+00 0.0000000000000000e+00  3.4162902822287428e-02 2.1839447065787145e+00 0.0000000000000000e+00  3.4681403034539697e-02 2.2183350039542691e+00 0.0000000000000000e+00  3.5211664075858580e-02 2.2532668066637558e+00 0.0000000000000000e+00  3.5753950348604659e-02 2.2887486818565579e+00 0.0000000000000000e+00  3.6308445636699958e-02 2.3247893398509198e+00 0.0000000000000000e+00  3.6875235071393307e-02 2.3613976379448713e+00 0.0000000000000000e+00  3.7454284335293672e-02 2.3985825842747017e+00 0.0000000000000000e+00  3.8045415936518542e-02 2.4363533420042103e+00 0.0000000000000000e+00  3.8648283379545276e-02 2.4747192337292074e+00 0.0000000000000000e+00  3.9262344856301694e-02 2.5136897437444592e+00 0.0000000000000000e+00  3.9886842214248333e-02 2.5532745173884477e+00 0.0000000000000000e+00  4.0520810690976211e-02 2.5934833429105359e+00 0.0000000000000000e+00  4.1163152393794956e-02 2.6343260665836610e+00 0.0000000000000000e+00  4.1813083153399995e-02 2.6758122962849282e+00 0.0000000000000000e+00  4.2471425367097852e-02 2.7179500145533773e+00 0.0000000000000000e+00  3.1244913995163302e-02 9.9951175879982523e-01 0.0000000000000000e+00  3.1741899645310385e-02 1.0152451749592351e+00 0.0000000000000000e+00  3.2258809943357933e-02 1.0312176368192654e+00 0.0000000000000000e+00  3.2797630610147677e-02 1.0474408379055196e+00 0.0000000000000000e+00  3.3357833165738399e-02 1.0639216263480551e+00 0.0000000000000000e+00  3.3937757793247335e-02 1.0806649314100412e+00 0.0000000000000000e+00  3.4535255113230599e-02 1.0976749445589533e+00 0.0000000000000000e+00  3.5148128257861289e-02 1.1149556209677407e+00 0.0000000000000000e+00  3.5774321307587391e-02 1.1325108854210082e+00 0.0000000000000000e+00  3.6411996540000373e-02 1.1503447142772709e+00 0.0000000000000000e+00  3.7059555663327054e-02 1.1684611690660263e+00 0.0000000000000000e+00  3.7715633972876181e-02 1.1868644087994742e+00 0.0000000000000000e+00  3.8379083232338844e-02 1.2055586933106655e+00 0.0000000000000000e+00  3.9048950642138834e-02 1.2245483827975074e+00 0.0000000000000000e+00  3.9724457442486552e-02 1.2438379359959673e+00 0.0000000000000000e+00  4.0404978773169793e-02 1.2634319080091141e+00 0.0000000000000000e+00  4.1090025481124448e-02 1.2833349481934277e+00 0.0000000000000000e+00  4.1779228064615162e-02 1.3035517984176728e+00 0.0000000000000000e+00  4.2472322725590303e-02 1.3240872915698236e+00 0.0000000000000000e+00  4.3169139389684745e-02 1.3449463505172081e+00 0.0000000000000000e+00  4.3869591508862535e-02 1.3661339872707650e+00 0.0000000000000000e+00  4.4573667460030095e-02 1.3876553025555955e+00 0.0000000000000000e+00  4.5281423349213534e-02 1.4095154855157639e+00 0.0000000000000000e+00  4.5992977054008718e-02 1.4317198137688272e+00 0.0000000000000000e+00  4.6708503339695173e-02 1.4542736535375664e+00 0.0000000000000000e+00  4.7428229910308373e-02 1.4771824600897601e+00 0.0000000000000000e+00  4.8152434255416335e-02 1.5004517782177620e+00 0.0000000000000000e+00  4.8881441177214144e-02 1.5240872429948851e+00 0.0000000000000000e+00  4.9615620878097039e-02 1.5480945805498454e+00 0.0000000000000000e+00  5.0355387508717070e-02 1.5724796090978281e+00 0.0000000000000000e+00  5.1101198069045409e-02 1.5972482399786119e+00 0.0000000000000000e+00  5.1853551571860501e-02 1.6224064789378587e+00 0.0000000000000000e+00  5.2612988367652380e-02 1.6479604274151254e+00 0.0000000000000000e+00  5.3380089543440430e-02 1.6739162840654169e+00 0.0000000000000000e+00  5.4155476297186436e-02 1.7002803462911980e+00 0.0000000000000000e+00  5.4939809200346953e-02 1.7270590120052498e+00 0.0000000000000000e+00  5.5733787248438957e-02 1.7542587814150421e+00 0.0000000000000000e+00  5.6538146607857248e-02 1.7818862590329778e+00 0.0000000000000000e+00  5.7353658955879593e-02 1.8099481557205306e+00 0.0000000000000000e+00  5.8181129316306854e-02 1.8384512909634450e+00 0.0000000000000000e+00  5.9021393280724394e-02 1.8674025951981514e+00 0.0000000000000000e+00  5.9875313508836236e-02 1.8968091123680961e+00 0.0000000000000000e+00  6.0743775390997866e-02 1.9266780025510160e+00 0.0000000000000000e+00  6.1627681756096300e-02 1.9570165448301193e+00 0.0000000000000000e+00  6.2527946497142328e-02 1.9878321402589076e+00 0.0000000000000000e+00  6.3445486983715105e-02 2.0191323150776204e+00 0.0000000000000000e+00  6.4381215118767418e-02 2.0509247240573636e+00 0.0000000000000000e+00  6.5336026888438828e-02 2.0832171541319262e+00 0.0000000000000000e+00  6.6310790244905896e-02 2.1160175282011133e+00 0.0000000000000000e+00  6.7306331156085294e-02 2.1493339092527277e+00 0.0000000000000000e+00  6.8323417644167356e-02 2.1831745047069768e+00 0.0000000000000000e+00  6.9362741626417687e-02 2.2175476711691551e+00 0.0000000000000000e+00  7.0424898363144750e-02 2.2524619194481734e+00 0.0000000000000000e+00  7.1510363347304734e-02 2.2879259201785995e+00 0.0000000000000000e+00  7.2619466455064396e-02 2.3239485095837131e+00 0.0000000000000000e+00  7.3752363505417459e-02 2.3605386962261758e+00 0.0000000000000000e+00  7.4909005589061148e-02 2.3977056669972310e+00 0.0000000000000000e+00  7.6089107797055772e-02 2.4354587935077321e+00 0.0000000000000000e+00  7.7292120308633541e-02 2.4738076340310284e+00 0.0000000000000000e+00  7.8517208170248626e-02 2.5127619287892724e+00 0.0000000000000000e+00  7.9763255252817619e-02 2.5523315732399188e+00 0.0000000000000000e+00  8.1028929921711498e-02 2.5925265295166953e+00 0.0000000000000000e+00  8.2312863513024664e-02 2.6333565717381160e+00 0.0000000000000000e+00  8.3614107046933145e-02 2.6748305971989526e+00 0.0000000000000000e+00  8.4932481944818061e-02 2.7169546512767035e+00 0.0000000000000000e+00  4.6857835762887039e-02 9.9890156865293933e-01 0.0000000000000000e+00  4.7605625357548323e-02 1.0146103101896353e+00 0.0000000000000000e+00  4.8384106573563866e-02 1.0305568150149049e+00 0.0000000000000000e+00  4.9192728569134307e-02 1.0467542031365340e+00 0.0000000000000000e+00  5.0030120283727775e-02 1.0632106369646628e+00 0.0000000000000000e+00  5.0894220423986690e-02 1.0799317583638466e+00 0.0000000000000000e+00  5.1782534409700598e-02 1.0969220022914392e+00 0.0000000000000000e+00  5.2692469483511951e-02 1.1141852904456084e+00 0.0000000000000000e+00  5.3621523722258146e-02 1.1317253709051280e+00 0.0000000000000000e+00  5.4567397365959891e-02 1.1495459829392789e+00 0.0000000000000000e+00  5.5528040838369583e-02 1.1676509348464275e+00 0.0000000000000000e+00  5.6501667684821059e-02 1.1860441382529880e+00 0.0000000000000000e+00  5.7486748662494036e-02 1.2047296220142840e+00 0.0000000000000000e+00  5.8481996111646506e-02 1.2237115357841561e+00 0.0000000000000000e+00  5.9486344220097617e-02 1.2429941489939567e+00 0.0000000000000000e+00  6.0498928267401060e-02 1.2625818476651736e+00 0.0000000000000000e+00  6.1519064506580609e-02 1.2824791307290995e+00 0.0000000000000000e+00  6.2546231500464317e-02 1.3026906061858354e+00 0.0000000000000000e+00  6.3580053296375394e-02 1.3232209876989252e+00 0.0000000000000000e+00  6.4620284535409689e-02 1.3440750914823876e+00 0.0000000000000000e+00  6.5666797478464212e-02 1.3652578337800421e+00 0.0000000000000000e+00  6.6719570827505473e-02 1.3867742286660441e+00 0.0000000000000000e+00  6.7778680213697276e-02 1.4086293864074195e+00 0.0000000000000000e+00  6.8844290177499406e-02 1.4308285120861581e+00 0.0000000000000000e+00  6.9916647494432826e-02 1.4533769047179923e+00 0.0000000000000000e+00  7.0996075671151126e-02 1.4762799565693800e+00 0.0000000000000000e+00  7.2082970473970789e-02 1.4995431529147336e+00 0.0000000000000000e+00  7.3177796325653299e-02 1.5231720719462216e+00 0.0000000000000000e+00  7.4281083443942728e-02 1.5471723850814845e+00 0.0000000000000000e+00  7.5393425569749858e-02 1.5715498573980307e+00 0.0000000000000000e+00  7.6515478166785930e-02 1.5963103484364574e+00 0.0000000000000000e+00  7.7647956948352553e-02 1.6214598131193665e+00 0.0000000000000000e+00  7.8791636616845878e-02 1.6470043030231909e+00 0.0000000000000000e+00  7.9947349675828838e-02 1.6729499677660298e+00 0.0000000000000000e+00  8.1115985198763341e-02 1.6993030567391352e+00 0.0000000000000000e+00  8.2298487414852600e-02 1.7260699209655443e+00 0.0000000000000000e+00  8.3495853992544444e-02 1.7532570153030342e+00 0.0000000000000000e+00  8.4709133878051082e-02 1.7808709007882957e+00 0.0000000000000000e+00  8.5939424561328956e-02 1.8089182473294894e+00 0.0000000000000000e+00  8.7187868622815329e-02 1.8374058365640855e+00 0.0000000000000000e+00  8.8455649426449734e-02 1.8663405650770331e+00 0.0000000000000000e+00  8.9743985804933452e-02 1.8957294478052182e+00 0.0000000000000000e+00  9.1054125592997914e-02 1.9255796218187151e+00 0.0000000000000000e+00  9.2387337849483053e-02 1.9558983503201302e+00 0.0000000000000000e+00  9.3744903617140343e-02 1.9866930270449192e+00 0.0000000000000000e+00  9.5128105050015385e-02 2.0179711809089333e+00 0.0000000000000000e+00  9.6538212748304764e-02 2.0497404811009039e+00 0.0000000000000000e+00  9.7976471131996729e-02 2.0820087424662161e+00 0.0000000000000000e+00  9.9444081708616003e-02 2.1147839313836134e+00 0.0000000000000000e+00  1.0094218408278521e-01 2.1480741719434748e+00 0.0000000000000000e+00  1.0247183458537937e-01 2.1818877527015266e+00 0.0000000000000000e+00  1.0403398241452699e-01 2.2162331337442049e+00 0.0000000000000000e+00  1.0562944325929617e-01 2.2511189544528096e+00 0.0000000000000000e+00  1.0725887049349167e-01 2.2865540414234036e+00 0.0000000000000000e+00  1.0892272428851413e-01 2.3225474169922169e+00 0.0000000000000000e+00  1.1062123952046077e-01 2.3591083070122982e+00 0.0000000000000000e+00  1.1235439394011822e-01 2.3962461477476933e+00 0.0000000000000000e+00  1.1412187967736948e-01 2.4339705884467144e+00 0.0000000000000000e+00  1.1592308266545606e-01 2.4722914855217395e+00 0.0000000000000000e+00  1.1775707908905500e-01 2.5112188782084108e+00 0.0000000000000000e+00  1.1962266525609608e-01 2.5507629191074628e+00 0.0000000000000000e+00  1.2151844342856591e-01 2.5909337065100218e+00 0.0000000000000000e+00  1.2344296504490868e-01 2.6317409174278987e+00 0.0000000000000000e+00  1.2539490365251701e-01 2.6731930515136262e+00 0.0000000000000000e+00  1.2737280347517430e-01 2.7152959824885210e+00 0.0000000000000000e+00  6.2459317862044998e-02 9.9804751101432643e-01 0.0000000000000000e+00  6.3457135171178985e-02 1.0137191125957399e+00 0.0000000000000000e+00  6.4495972375833183e-02 1.0296306642076631e+00 0.0000000000000000e+00  6.5572842886624683e-02 1.0457948532150028e+00 0.0000000000000000e+00  6.6685186523011378e-02 1.0622202316673059e+00 0.0000000000000000e+00  6.7830348929827131e-02 1.0789128333134239e+00 0.0000000000000000e+00  6.9005514199971960e-02 1.0958772796766230e+00 0.0000000000000000e+00  7.0207832998756492e-02 1.1131174777111954e+00 0.0000000000000000e+00  7.1434546792871451e-02 1.1306370244512804e+00 0.0000000000000000e+00  7.2683084931328260e-02 1.1484394327903575e+00 0.0000000000000000e+00  7.3951118773946417e-02 1.1665282502089629e+00 0.0000000000000000e+00  7.5236586861362684e-02 1.1849071196189205e+00 0.0000000000000000e+00  7.6537699416836399e-02 1.2035798084164713e+00 0.0000000000000000e+00  7.7852930430048858e-02 1.2225502201240266e+00 0.0000000000000000e+00  7.9181002930435090e-02 1.2418223968349476e+00 0.0000000000000000e+00  8.0520871029400337e-02 1.2614005171886593e+00 0.0000000000000000e+00  8.1871700932628008e-02 1.2812888921007128e+00 0.0000000000000000e+00  8.3232852309863145e-02 1.3014919597387768e+00 0.0000000000000000e+00  8.4603860770638403e-02 1.3220142803719557e+00 0.0000000000000000e+00  8.5984421854649606e-02 1.3428605315318749e+00 0.0000000000000000e+00  8.7374376701275291e-02 1.3640355035986429e+00 0.0000000000000000e+00  8.8773699436092979e-02 1.3855440959482199e+00 0.0000000000000000e+00  9.0182486216034641e-02 1.4073913136165879e+00 0.0000000000000000e+00  9.1600945838191103e-02 1.4295822645321496e+00 0.0000000000000000e+00  9.302939