<?xml version="1.0"?>
<VTKFile type="UnstructuredGrid"  version="0.1"  >
<UnstructuredGrid>
<Piece  NumberOfPoints="729" NumberOfCells="3072">
<Points>
<DataArray  type="Float64"  NumberOfComponents="3"  format="ascii">0 0 0  0.125 0 0  0.25 0 0  0.375 0 0  0.5 0 0  0.625 0 0  0.75 0 0  0.875 0 0  1 0 0  0 0.125 0  0.125 0.125 0  0.25 0.125 0  0.375 0.125 0  0.5 0.125 0  0.625 0.125 0  0.75 0.125 0  0.875 0.125 0  1 0.125 0  0 0.25 0  0.125 0.25 0  0.25 0.25 0  0.375 0.25 0  0.5 0.25 0  0.625 0.25 0  0.75 0.25 0  0.875 0.25 0  1 0.25 0  0 0.375 0  0.125 0.375 0  0.25 0.375 0  0.375 0.375 0  0.5 0.375 0  0.625 0.375 0  0.75 0.375 0  0.875 0.375 0  1 0.375 0  0 0.5 0  0.125 0.5 0  0.25 0.5 0  0.375 0.5 0  0.5 0.5 0  0.625 0.5 0  0.75 0.5 0  0.875 0.5 0  1 0.5 0  0 0.625 0  0.125 0.625 0  0.25 0.625 0  0.375 0.625 0  0.5 0.625 0  0.625 0.625 0  0.75 0.625 0  0.875 0.625 0  1 0.625 0  0 0.75 0  0.125 0.75 0  0.25 0.75 0  0.375 0.75 0  0.5 0.75 0  0.625 0.75 0  0.75 0.75 0  0.875 0.75 0  1 0.75 0  0 0.875 0  0.125 0.875 0  0.25 0.875 0  0.375 0.875 0  0.5 0.875 0  0.625 0.875 0  0.75 0.875 0  0.875 0.875 0  1 0.875 0  0 1 0  0.125 1 0  0.25 1 0  0.375 1 0  0.5 1 0  0.625 1 0  0.75 1 0  0.875 1 0  1 1 0  0 0 0.125  0.125 0 0.125  0.25 0 0.125  0.375 0 0.125  0.5 0 0.125  0.625 0 0.125  0.75 0 0.125  0.875 0 0.125  1 0 0.125  0 0.125 0.125  0.125 0.125 0.125  0.25 0.125 0.125  0.375 0.125 0.125  0.5 0.125 0.125  0.625 0.125 0.125  0.75 0.125 0.125  0.875 0.125 0.125  1 0.125 0.125  0 0.25 0.125  0.125 0.25 0.125  0.25 0.25 0.125  0.375 0.25 0.125  0.5 0.25 0.125  0.625 0.25 0.125  0.75 0.25 0.125  0.875 0.25 0.125  1 0.25 0.125  0 0.375 0.125  0.125 0.375 0.125  0.25 0.375 0.125  0.375 0.375 0.125  0.5 0.375 0.125  0.625 0.375 0.125  0.75 0.375 0.125  0.875 0.375 0.125  1 0.375 0.125  0 0.5 0.125  0.125 0.5 0.125  0.25 0.5 0.125  0.375 0.5 0.125  0.5 0.5 0.125  0.625 0.5 0.125  0.75 0.5 0.125  0.875 0.5 0.125  1 0.5 0.125  0 0.625 0.125  0.125 0.625 0.125  0.25 0.625 0.125  0.375 0.625 0.125  0.5 0.625 0.125  0.625 0.625 0.125  0.75 0.625 0.125  0.875 0.625 0.125  1 0.625 0.125  0 0.75 0.125  0.125 0.75 0.125  0.25 0.75 0.125  0.375 0.75 0.125  0.5 0.75 0.125  0.625 0.75 0.125  0.75 0.75 0.125  0.875 0.75 0.125  1 0.75 0.125  0 0.875 0.125  0.125 0.875 0.125  0.25 0.875 0.125  0.375 0.875 0.125  0.5 0.875 0.125  0.625 0.875 0.125  0.75 0.875 0.125  0.875 0.875 0.125  1 0.875 0.125  0 1 0.125  0.125 1 0.125  0.25 1 0.125  0.375 1 0.125  0.5 1 0.125  0.625 1 0.125  0.75 1 0.125  0.875 1 0.125  1 1 0.125  0 0 0.25  0.125 0 0.25  0.25 0 0.25  0.375 0 0.25  0.5 0 0.25  0.625 0 0.25  0.75 0 0.25  0.875 0 0.25  1 0 0.25  0 0.125 0.25  0.125 0.125 0.25  0.25 0.125 0.25  0.375 0.125 0.25  0.5 0.125 0.25  0.625 0.125 0.25  0.75 0.125 0.25  0.875 0.125 0.25  1 0.125 0.25  0 0.25 0.25  0.125 0.25 0.25  0.25 0.25 0.25  0.375 0.25 0.25  0.5 0.25 0.25  0.625 0.25 0.25  0.75 0.25 0.25  0.875 0.25 0.25  1 0.25 0.25  0 0.375 0.25  0.125 0.375 0.25  0.25 0.375 0.25  0.375 0.375 0.25  0.5 0.375 0.25  0.625 0.375 0.25  0.75 0.375 0.25  0.875 0.375 0.25  1 0.375 0.25  0 0.5 0.25  0.125 0.5 0.25  0.25 0.5 0.25  0.375 0.5 0.25  0.5 0.5 0.25  0.625 0.5 0.25  0.75 0.5 0.25  0.875 0.5 0.25  1 0.5 0.25  0 0.625 0.25  0.125 0.625 0.25  0.25 0.625 0.25  0.375 0.625 0.25  0.5 0.625 0.25  0.625 0.625 0.25  0.75 0.625 0.25  0.875 0.625 0.25  1 0.625 0.25  0 0.75 0.25  0.125 0.75 0.25  0.25 0.75 0.25  0.375 0.75 0.25  0.5 0.75 0.25  0.625 0.75 0.25  0.75 0.75 0.25  0.875 0.75 0.25  1 0.75 0.25  0 0.875 0.25  0.125 0.875 0.25  0.25 0.875 0.25  0.375 0.875 0.25  0.5 0.875 0.25  0.625 0.875 0.25  0.75 0.875 0.25  0.875 0.875 0.25  1 0.875 0.25  0 1 0.25  0.125 1 0.25  0.25 1 0.25  0.375 1 0.25  0.5 1 0.25  0.625 1 0.25  0.75 1 0.25  0.875 1 0.25  1 1 0.25  0 0 0.375  0.125 0 0.375  0.25 0 0.375  0.375 0 0.375  0.5 0 0.375  0.625 0 0.375  0.75 0 0.375  0.875 0 0.375  1 0 0.375  0 0.125 0.375  0.125 0.125 0.375  0.25 0.125 0.375  0.375 0.125 0.375  0.5 0.125 0.375  0.625 0.125 0.375  0.75 0.125 0.375  0.875 0.125 0.375  1 0.125 0.375  0 0.25 0.375  0.125 0.25 0.375  0.25 0.25 0.375  0.375 0.25 0.375  0.5 0.25 0.375  0.625 0.25 0.375  0.75 0.25 0.375  0.875 0.25 0.375  1 0.25 0.375  0 0.375 0.375  0.125 0.375 0.375  0.25 0.375 0.375  0.375 0.375 0.375  0.5 0.375 0.375  0.625 0.375 0.375  0.75 0.375 0.375  0.875 0.375 0.375  1 0.375 0.375  0 0.5 0.375  0.125 0.5 0.375  0.25 0.5 0.375  0.375 0.5 0.375  0.5 0.5 0.375  0.625 0.5 0.375  0.75 0.5 0.375  0.875 0.5 0.375  1 0.5 0.375  0 0.625 0.375  0.125 0.625 0.375  0.25 0.625 0.375  0.375 0.625 0.375  0.5 0.625 0.375  0.625 0.625 0.375  0.75 0.625 0.375  0.875 0.625 0.375  1 0.625 0.375  0 0.75 0.375  0.125 0.75 0.375  0.25 0.75 0.375  0.375 0.75 0.375  0.5 0.75 0.375  0.625 0.75 0.375  0.75 0.75 0.375  0.875 0.75 0.375  1 0.75 0.375  0 0.875 0.375  0.125 0.875 0.375  0.25 0.875 0.375  0.375 0.875 0.375  0.5 0.875 0.375  0.625 0.875 0.375  0.75 0.875 0.375  0.875 0.875 0.375  1 0.875 0.375  0 1 0.375  0.125 1 0.375  0.25 1 0.375  0.375 1 0.375  0.5 1 0.375  0.625 1 0.375  0.75 1 0.375  0.875 1 0.375  1 1 0.375  0 0 0.5  0.125 0 0.5  0.25 0 0.5  0.375 0 0.5  0.5 0 0.5  0.625 0 0.5  0.75 0 0.5  0.875 0 0.5  1 0 0.5  0 0.125 0.5  0.125 0.125 0.5  0.25 0.125 0.5  0.375 0.125 0.5  0.5 0.125 0.5  0.625 0.125 0.5  0.75 0.125 0.5  0.875 0.125 0.5  1 0.125 0.5  0 0.25 0.5  0.125 0.25 0.5  0.25 0.25 0.5  0.375 0.25 0.5  0.5 0.25 0.5  0.625 0.25 0.5  0.75 0.25 0.5  0.875 0.25 0.5  1 0.25 0.5  0 0.375 0.5  0.125 0.375 0.5  0.25 0.375 0.5  0.375 0.375 0.5  0.5 0.375 0.5  0.625 0.375 0.5  0.75 0.375 0.5  0.875 0.375 0.5  1 0.375 0.5  0 0.5 0.5  0.125 0.5 0.5  0.25 0.5 0.5  0.375 0.5 0.5  0.5 0.5 0.5  0.625 0.5 0.5  0.75 0.5 0.5  0.875 0.5 0.5  1 0.5 0.5  0 0.625 0.5  0.125 0.625 0.5  0.25 0.625 0.5  0.375 0.625 0.5  0.5 0.625 0.5  0.625 0.625 0.5  0.75 0.625 0.5  0.875 0.625 0.5  1 0.625 0.5  0 0.75 0.5  0.125 0.75 0.5  0.25 0.75 0.5  0.375 0.75 0.5  0.5 0.75 0.5  0.625 0.75 0.5  0.75 0.75 0.5  0.875 0.75 0.5  1 0.75 0.5  0 0.875 0.5  0.125 0.875 0.5  0.25 0.875 0.5  0.375 0.875 0.5  0.5 0.875 0.5  0.625 0.875 0.5  0.75 0.875 0.5  0.875 0.875 0.5  1 0.875 0.5  0 1 0.5  0.125 1 0.5  0.25 1 0.5  0.375 1 0.5  0.5 1 0.5  0.625 1 0.5  0.75 1 0.5  0.875 1 0.5  1 1 0.5  0 0 0.625  0.125 0 0.625  0.25 0 0.625  0.375 0 0.625  0.5 0 0.625  0.625 0 0.625  0.75 0 0.625  0.875 0 0.625  1 0 0.625  0 0.125 0.625  0.125 0.125 0.625  0.25 0.125 0.625  0.375 0.125 0.625  0.5 0.125 0.625  0.625 0.125 0.625  0.75 0.125 0.625  0.875 0.125 0.625  1 0.125 0.625  0 0.25 0.625  0.125 0.25 0.625  0.25 0.25 0.625  0.375 0.25 0.625  0.5 0.25 0.625  0.625 0.25 0.625  0.75 0.25 0.625  0.875 0.25 0.625  1 0.25 0.625  0 0.375 0.625  0.125 0.375 0.625  0.25 0.375 0.625  0.375 0.375 0.625  0.5 0.375 0.625  0.625 0.375 0.625  0.75 0.375 0.625  0.875 0.375 0.625  1 0.375 0.625  0 0.5 0.625  0.125 0.5 0.625  0.25 0.5 0.625  0.375 0.5 0.625  0.5 0.5 0.625  0.625 0.5 0.625  0.75 0.5 0.625  0.875 0.5 0.625  1 0.5 0.625  0 0.625 0.625  0.125 0.625 0.625  0.25 0.625 0.625  0.375 0.625 0.625  0.5 0.625 0.625  0.625 0.625 0.625  0.75 0.625 0.625  0.875 0.625 0.625  1 0.625 0.625  0 0.75 0.625  0.125 0.75 0.625  0.25 0.75 0.625  0.375 0.75 0.625  0.5 0.75 0.625  0.625 0.75 0.625  0.75 0.75 0.625  0.875 0.75 0.625  1 0.75 0.625  0 0.875 0.625  0.125 0.875 0.625  0.25 0.875 0.625  0.375 0.875 0.625  0.5 0.875 0.625  0.625 0.875 0.625  0.75 0.875 0.625  0.875 0.875 0.625  1 0.875 0.625  0 1 0.625  0.125 1 0.625  0.25 1 0.625  0.375 1 0.625  0.5 1 0.625  0.625 1 0.625  0.75 1 0.625  0.875 1 0.625  1 1 0.625  0 0 0.75  0.125 0 0.75  0.25 0 0.75  0.375 0 0.75  0.5 0 0.75  0.625 0 0.75  0.75 0 0.75  0.875 0 0.75  1 0 0.75  0 0.125 0.75  0.125 0.125 0.75  0.25 0.125 0.75  0.375 0.125 0.75  0.5 0.125 0.75  0.625 0.125 0.75  0.75 0.125 0.75  0.875 0.125 0.75  1 0.125 0.75  0 0.25 0.75  0.125 0.25 0.75  0.25 0.25 0.75  0.375 0.25 0.75  0.5 0.25 0.75  0.625 0.25 0.75  0.75 0.25 0.75  0.875 0.25 0.75  1 0.25 0.75  0 0.375 0.75  0.125 0.375 0.75  0.25 0.375 0.75  0.375 0.375 0.75  0.5 0.375 0.75  0.625 0.375 0.75  0.75 0.375 0.75  0.875 0.375 0.75  1 0.375 0.75  0 0.5 0.75  0.125 0.5 0.75  0.25 0.5 0.75  0.375 0.5 0.75  0.5 0.5 0.75  0.625 0.5 0.75  0.75 0.5 0.75  0.875 0.5 0.75  1 0.5 0.75  0 0.625 0.75  0.125 0.625 0.75  0.25 0.625 0.75  0.375 0.625 0.75  0.5 0.625 0.75  0.625 0.625 0.75  0.75 0.625 0.75  0.875 0.625 0.75  1 0.625 0.75  0 0.75 0.75  0.125 0.75 0.75  0.25 0.75 0.75  0.375 0.75 0.75  0.5 0.75 0.75  0.625 0.75 0.75  0.75 0.75 0.75  0.875 0.75 0.75  1 0.75 0.75  0 0.875 0.75  0.125 0.875 0.75  0.25 0.875 0.75  0.375 0.875 0.75  0.5 0.875 0.75  0.625 0.875 0.75  0.75 0.875 0.75  0.875 0.875 0.75  1 0.875 0.75  0 1 0.75  0.125 1 0.75  0.25 1 0.75  0.375 1 0.75  0.5 1 0.75  0.625 1 0.75  0.75 1 0.75  0.875 1 0.75  1 1 0.75  0 0 0.875  0.125 0 0.875  0.25 0 0.875  0.375 0 0.875  0.5 0 0.875  0.625 0 0.875  0.75 0 0.875  0.875 0 0.875  1 0 0.875  0 0.125 0.875  0.125 0.125 0.875  0.25 0.125 0.875  0.375 0.125 0.875  0.5 0.125 0.875  0.625 0.125 0.875  0.75 0.125 0.875  0.875 0.125 0.875  1 0.125 0.875  0 0.25 0.875  0.125 0.25 0.875  0.25 0.25 0.875  0.375 0.25 0.875  0.5 0.25 0.875  0.625 0.25 0.875  0.75 0.25 0.875  0.875 0.25 0.875  1 0.25 0.875  0 0.375 0.875  0.125 0.375 0.875  0.25 0.375 0.875  0.375 0.375 0.875  0.5 0.375 0.875  0.625 0.375 0.875  0.75 0.375 0.875  0.875 0.375 0.875  1 0.375 0.875  0 0.5 0.875  0.125 0.5 0.875  0.25 0.5 0.875  0.375 0.5 0.875  0.5 0.5 0.875  0.625 0.5 0.875  0.75 0.5 0.875  0.875 0.5 0.875  1 0.5 0.875  0 0.625 0.875  0.125 0.625 0.875  0.25 0.625 0.875  0.375 0.625 0.875  0.5 0.625 0.875  0.625 0.625 0.875  0.75 0.625 0.875  0.875 0.625 0.875  1 0.625 0.875  0 0.75 0.875  0.125 0.75 0.875  0.25 0.75 0.875  0.375 0.75 0.875  0.5 0.75 0.875  0.625 0.75 0.875  0.75 0.75 0.875  0.875 0.75 0.875  1 0.75 0.875  0 0.875 0.875  0.125 0.875 0.875  0.25 0.875 0.875  0.375 0.875 0.875  0.5 0.875 0.875  0.625 0.875 0.875  0.75 0.875 0.875  0.
[...]
<PointData  Vectors="f_392"> 
<DataArray  type="Float64"  Name="f_392"  NumberOfComponents="3" format="ascii">0.0000000000000000e+00 0.0000000000000000e+00 0.0000000000000000e+00  0.0000000000000000e+00 1.4581114093914493e-12 -1.4581114093914493e-12  0.0000000000000000e+00 3.2785441028693185e-12 -3.2785441028693185e-12  0.0000000000000000e+00 5.4998228193881005e-12 -5.4998228193881005e-12  0.0000000000000000e+00 8.1580298072481128e-12 -8.1580298072481128e-12  0.0000000000000000e+00 1.1281198197821141e-11 -1.1281198197821141e-11  0.0000000000000000e+00 1.4893419830741550e-11 -1.4893419830741550e-11  0.0000000000000000e+00 1.9002577289484179e-11 -1.9002577289484179e-11  0.0000000000000000e+00 2.3608670574049029e-11 -2.3608670574049029e-11  -1.4581114093914493e-12 0.0000000000000000e+00 1.4581114093914493e-12  -1.6522339052471580e-12 1.6522339052471580e-12 0.0000000000000000e+00  -1.8721968420010171e-12 3.7151948184543926e-12 -1.8430534876046067e-12  -2.1214419110293647e-12 6.2330141048505538e-12 -4.1111558601869547e-12  -2.4039659152208515e-12 9.2444940591462910e-12 -6.8407501885303645e-12  -2.7239877020690528e-12 1.2784884262373453e-11 -1.0060619004548244e-11  -3.0865865419116290e-12 1.6877166331141780e-11 -1.3789636099659219e-11  -3.4975355944766306e-12 2.1533441696419686e-11 -1.8035573035035668e-11  -3.9634961979118088e-12 2.6750601733738222e-11 -2.2787993714246113e-11  -3.2785441028693185e-12 0.0000000000000000e+00 3.2785441028693185e-12  -3.7151948184543926e-12 1.8721968420010171e-12 1.8430534876046067e-12  -4.2101322428322874e-12 4.2101322428322874e-12 0.0000000000000000e+00  -4.7703507810581414e-12 7.0623507042455458e-12 -2.2922219677923295e-12  -5.4053428399924996e-12 1.0474732192733427e-11 -5.0697224196483148e-12  -6.1252114491594511e-12 1.4486412069913968e-11 -8.3609785761495914e-12  -6.9410033276540162e-12 1.9122925465353546e-11 -1.2181811115397068e-11  -7.8648199064446089e-12 2.4402702081260941e-11 -1.6535217639557231e-11  -8.9126483970858317e-12 3.0314417642784974e-11 -2.1401103111884368e-11  -5.4998228193881005e-12 0.0000000000000000e+00 5.4998228193881005e-12  -6.2330141048505538e-12 2.1214419110293647e-12 4.1111558601869547e-12  -7.0623507042455458e-12 4.7703507810581414e-12 2.2922219677923295e-12  -8.0027096061030534e-12 8.0027096061030534e-12 0.0000000000000000e+00  -9.0685237097432037e-12 1.1870504579292174e-11 -2.8015922914903513e-12  -1.0274781025998436e-11 1.6415313552897715e-11 -6.1387561700598781e-12  -1.1643797037663717e-11 2.1669777083843655e-11 -1.0025535956970089e-11  -1.3193668380040435e-11 2.7649882383684599e-11 -1.4455325825224463e-11  -1.4951151428022058e-11 3.4346303579013693e-11 -1.9398260775460585e-11  -8.1580298072481128e-12 0.0000000000000000e+00 8.1580298072481128e-12  -9.2444940591462910e-12 2.4039659152208515e-12 6.8407501885303645e-12  -1.0474732192733427e-11 5.4053428399924996e-12 5.0697224196483148e-12  -1.1870504579292174e-11 9.0685237097432037e-12 2.8015922914903513e-12  -1.3450573987938697e-11 1.3450573987938697e-11 0.0000000000000000e+00  -1.5241807815868924e-11 1.8599344286940322e-11 -3.3592573167595674e-12  -1.7271073460278785e-11 2.4552804234190262e-11 -7.2842842868681146e-12  -1.9569679210462709e-11 3.1331381933341618e-11 -1.1761036589064133e-11  -2.2175594693862877e-11 3.8921310618889038e-11 -1.6745937969631086e-11  -1.1281198197821141e-11 0.0000000000000000e+00 1.1281198197821141e-11  -1.2784884262373453e-11 2.7239877020690528e-12 1.0060619004548244e-11  -1.4486412069913968e-11 6.1252114491594511e-12 8.3609785761495914e-12  -1.6415313552897715e-11 1.0274781025998436e-11 6.1387561700598781e-12  -1.8599344286940322e-11 1.5241807815868924e-11 3.3592573167595674e-12  -2.1077806167113522e-11 2.1077806167113522e-11 0.0000000000000000e+00  -2.3883561794946218e-11 2.7824853532365523e-11 -3.9408476482094557e-12  -2.7063240537472666e-11 3.5501823703043556e-11 -8.4390272547807399e-12  -3.0669244921455174e-11 4.4101611251790018e-11 -1.3437695400853045e-11  -1.4893419830741550e-11 0.0000000000000000e+00 1.4893419830741550e-11  -1.6877166331141780e-11 3.0865865419116290e-12 1.3789636099659219e-11  -1.9122925465353546e-11 6.9410033276540162e-12 1.2181811115397068e-11  -2.1669777083843655e-11 1.1643797037663717e-11 1.0025535956970089e-11  -2.4552804234190262e-11 1.7271073460278785e-11 7.2842842868681146e-12  -2.7824853532365523e-11 2.3883561794946218e-11 3.9408476482094557e-12  -3.1530777988564296e-11 3.1530777988564296e-11 0.0000000000000000e+00  -3.5726976932437537e-11 4.0230041520317172e-11 -4.5023984540648598e-12  -4.0484060548351408e-11 4.9976911498106347e-11 -9.4934060612672511e-12  -1.9002577289484179e-11 0.0000000000000000e+00 1.9002577289484179e-11  -2.1533441696419686e-11 3.4975355944766306e-12 1.8035573035035668e-11  -2.4402702081260941e-11 7.8648199064446089e-12 1.6535217639557231e-11  -2.7649882383684599e-11 1.3193668380040435e-11 1.4455325825224463e-11  -3.1331381933341618e-11 1.9569679210462709e-11 1.1761036589064133e-11  -3.5501823703043556e-11 2.7063240537472666e-11 8.4390272547807399e-12  -4.0230041520317172e-11 3.5726976932437537e-11 4.5023984540648598e-12  -4.5585757391108928e-11 4.5585757391108928e-11 0.0000000000000000e+00  -5.1654680532919883e-11 5.6631144218499685e-11 -4.9752979514039453e-12  -2.3608670574049029e-11 0.0000000000000000e+00 2.3608670574049029e-11  -2.6750601733738222e-11 3.9634961979118088e-12 2.2787993714246113e-11  -3.0314417642784974e-11 8.9126483970858317e-12 2.1401103111884368e-11  -3.4346303579013693e-11 1.4951151428022058e-11 1.9398260775460585e-11  -3.8921310618889038e-11 2.2175594693862877e-11 1.6745937969631086e-11  -4.4101611251790018e-11 3.0669244921455174e-11 1.3437695400853045e-11  -4.9976911498106347e-11 4.0484060548351408e-11 9.4934060612672511e-12  -5.6631144218499685e-11 5.1654680532919883e-11 4.9752979514039453e-12  -6.4173555358593148e-11 6.4173555358593148e-11 0.0000000000000000e+00  1.4581114093914493e-12 -1.4581114093914493e-12 0.0000000000000000e+00  1.6522339052471580e-12 0.0000000000000000e+00 -1.6522339052471580e-12  1.8721968420010171e-12 1.8430534876046067e-12 -3.7151948184543926e-12  2.1214419110293647e-12 4.1111558601869547e-12 -6.2330141048505538e-12  2.4039659152208515e-12 6.8407501885303645e-12 -9.2444940591462910e-12  2.7239877020690528e-12 1.0060619004548244e-11 -1.2784884262373453e-11  3.0865865419116290e-12 1.3789636099659219e-11 -1.6877166331141780e-11  3.4975355944766306e-12 1.8035573035035668e-11 -2.1533441696419686e-11  3.9634961979118088e-12 2.2787993714246113e-11 -2.6750601733738222e-11  0.0000000000000000e+00 -1.6522339052471580e-12 1.6522339052471580e-12  -3.4997116630807370e-03 -1.0502698159275145e-02 1.1804453720517596e-02  -7.6718084982284251e-03 -1.9057361718072596e-02 1.8668750679440321e-02  -6.2540386988512650e-03 -3.0625193087452873e-02 2.5950628959724331e-02  2.1257756215570861e-03 -4.5536066618092841e-02 3.7960542704351563e-02  1.3035710406316268e-02 -6.2174171820055246e-02 5.6761248757892568e-02  1.7796375754881882e-02 -7.6149359126682414e-02 7.9629369477620671e-02  1.0002557842247113e-02 -7.2654667696401054e-02 8.6974750881938290e-02  0.0000000000000000e+00 2.5822011195941741e-11 -2.5822011195941741e-11  -1.8430534876046067e-12 -1.8721968420010171e-12 3.7151948184543926e-12  -7.0564818292996601e-03 -2.3652722477350625e-02 9.6999634000321244e-03  -1.5937724398112835e-02 -4.7937644861624495e-02 1.5998750053753723e-02  -1.5676764318189151e-02 -8.2291750392395502e-02 2.2971884184262187e-02  -4.4102746565009010e-03 -1.2681053350757832e-01 3.6799136328706683e-02  1.0681416382496700e-02 -1.7681672453922670e-01 6.0686677803733380e-02  1.7767612683529888e-02 -2.1774388113004228e-01 9.0028084198830571e-02  9.1383480492794877e-03 -2.0556430652038138e-01 9.7159221947899610e-02  -5.0098258874697876e-12 2.9259705769391076e-11 -2.4249491303862669e-11  -4.1111558601869547e-12 -2.1214419110293647e-12 6.2330141048505538e-12  -1.0799156239640950e-02 -2.2370170616733628e-02 1.4583878280138851e-03  -2.3533359417361344e-02 -5.9151030127242515e-02 1.6650578103051816e-03  -2.3619125233929061e-02 -1.1506137485974038e-01 2.9531140596359222e-03  -1.0170386347948090e-02 -1.8901233048661492e-01 1.2246315934300589e-02  7.5415826423487209e-03 -2.7437031368131737e-01 3.4399184541676342e-02  1.6296314164466752e-02 -3.4682764227413521e-01 6.6283575347567902e-02  8.2552948694936124e-03 -3.3132801347454421e-01 8.1662827203773825e-02  -1.1175060876666976e-11 3.3155700407405675e-11 -2.1979307263109149e-11  -6.8407501885303645e-12 -2.4039659152208515e-12 9.2444940591462910e-12  -1.0995843169735453e-02 -3.2576997174141508e-03 -7.9140935928334599e-03  -2.0222091749825255e-02 -4.4129451645535223e-02 -1.6310602273759134e-02  -1.3634267727459348e-02 -1.1229743323976071e-01 -2.3319999332440666e-02  5.8931754720372709e-03 -2.0565201335965477e-01 -2.1449270905393066e-02  2.5553806930013856e-02 -3.1915143184900008e-01 -3.6160274374861245e-03  3.0378011621232881e-02 -4.2411660294829678e-01 3.0434013686837402e-02  1.3482097559249562e-02 -4.1981571700925446e-01 5.8291652944364669e-02  -1.8594237261027047e-11 3.7567282618056197e-11 -1.8976376026103026e-11  -1.0060619004548244e-11 -2.7239877020690528e-12 1.2784884262373453e-11  -3.0306889931626113e-03 2.3774522801818531e-02 -1.5519081237404642e-02  5.4404303446320412e-03 -1.2024958787093032e-02 -3.2835675991194191e-02  3.1652616768869768e-02 -7.7432931479330058e-02 -4.9072755685450331e-02  6.5804268849049441e-02 -1.7121303110793051e-01 -5.6301715706781885e-02  8.8049607461710533e-02 -2.9441000145759944e-01 -4.5053365158856634e-02  7.8257796149410419e-02 -4.2326583771475512e-01 -1.0668659882832943e-02  3.1201482987902818e-02 -4.4677038907767530e-01 2.9511711496795878e-02  -2.7344349007307756e-11 4.2572168013066403e-11 -1.5226486738129097e-11  -1.3789636099659219e-11 -3.0865865419116290e-12 1.6877166331141780e-11  1.4801546049149295e-02 3.8920601009188226e-02 -1.8912366541743220e-02  5.5382353831544329e-02 1.5569534982757982e-02 -4.2660899992883472e-02  1.1423103606343110e-01 -2.9683162835306143e-02 -6.6560831411728749e-02  1.7453641831132272e-01 -9.8461704618553858e-02 -8.3000555808143583e-02  2.0617782528107531e-01 -1.9913471400824534e-01 -8.1026346358471724e-02  1.7533464723650471e-01 -3.2248120200696651e-01 -5.1354790339803988e-02  7.0144516643830368e-02 -3.7861661148122572e-01 -3.7526159999539677e-03  -3.7483793846604385e-11 4.8240522687592602e-11 -1.0756284751778367e-11  -1.8035573035035668e-11 -3.4975355944766306e-12 2.1533441696419686e-11  3.1975507701870853e-02 2.4353835569426323e-02 -1.5086709524718245e-02  9.7220685719015876e-02 1.6223272586414372e-02 -3.7040569124427103e-02  1.7928484122267507e-01 7.2611847082959535e-04 -6.0326327777664002e-02  2.6322760010277069e-01 -2.4468366328340041e-02 -7.9543825167741389e-02  3.1600816265757636e-01 -6.6419630611798119e-02 -8.5392907110842575e-02  2.8667237831022652e-01 -1.2824377713999358e-01 -6.7707973985627612e-02  1.2995564131428772e-01 -1.7996515816856640e-01 -2.7990212058872695e-02  -4.9026560589027213e-11 5.4663829018863908e-11 -5.6377125190465449e-12  -2.2787993714246113e-11 -3.9634961979118088e-12 2.6750601733738222e-11  -2.5822011195941741e-11 0.0000000000000000e+00 2.5822011195941741e-11  -2.9259705769391076e-11 5.0098258874697876e-12 2.4249491303862669e-11  -3.3155700407405675e-11 1.1175060876666976e-11 2.1979307263109149e-11  -3.7567282618056197e-11 1.8594237261027047e-11 1.8976376026103026e-11  -4.2572168013066403e-11 2.7344349007307756e-11 1.5226486738129097e-11  -4.8240522687592602e-11 3.7483793846604385e-11 1.0756284751778367e-11  -5.4663829018863908e-11 4.9026560589027213e-11 5.6377125190465449e-12  -6.1938010276207933e-11 6.1938010276207933e-11 0.0000000000000000e+00  3.2785441028693185e-12 -3.2785441028693185e-12 0.0000000000000000e+00  3.7151948184543926e-12 -1.8430534876046067e-12 -1.8721968420010171e-12  4.2101322428322874e-12 0.0000000000000000e+00 -4.2101322428322874e-12  4.7703507810581414e-12 2.2922219677923295e-12 -7.0623507042455458e-12  5.4053428399924996e-12 5.0697224196483148e-12 -1.0474732192733427e-11  6.1252114491594511e-12 8.3609785761495914e-12 -1.4486412069913968e-11  6.9410033276540162e-12 1.2181811115397068e-11 -1.9122925465353546e-11  7.8648199064446089e-12 1.6535217639557231e-11 -2.4402702081260941e-11  8.9126483970858317e-12 2.1401103111884368e-11 -3.0314417642784974e-11  1.8430534876046067e-12 -3.7151948184543926e-12 1.8721968420010171e-12  -7.3307804645923458e-03 -1.2456625980070996e-02 3.7892010564938010e-02  -1.7339213536415571e-02 -2.1751530249280261e-02 5.7296148272429487e-02  -2.0829185182537430e-02 -3.4901310628600357e-02 7.8492127224894681e-02  -1.5683061965359346e-02 -5.1992188291530628e-02 1.1217368914410197e-01  -5.0832185570741650e-03 -6.9996288416840913e-02 1.6141758523877581e-01  3.7482318939700554e-03 -8.1846872504262036e-02 2.1485971095309586e-01  4.9917092396408735e-03 -7.0119954729654932e-02 2.2063840652830624e-01  5.0098258874697876e-12 2.4249491303862669e-11 -2.9259705769391076e-11  0.0000000000000000e+00 -4.2101322428322874e-12 4.2101322428322874e-12  -1.5248406560672650e-02 -2.6080773068309387e-02 3.4205193074560908e-02  -3.7031452306819188e-02 -5.2427966293137590e-02 5.1816311008823140e-02  -4.7638324480158069e-02 -9.1049661483294131e-02 7.1592752181552866e-02  -4.3602575066713035e-02 -1.4122243524234812e-01 1.0923838237531036e-01  -2.9938801211768583e-02 -1.9488353119320356e-01 1.7046399971435811e-01  -1.5123434074557093e-02 -2.3151005498122101e-01 2.3864140161327585e-01  -4.4499176782199371e-03 -2.0238626828030681e-01 2.4288953478113129e-01  0.0000000000000000e+00 2.7478908037892325e-11 -2.7478908037892325e-11  -2.2922219677923295e-12 -4.7703507810581414e-12 7.0623507042455458e-12  -2.2175449535116465e-02 -2.0593860181132406e-02 1.2267127747267681e-02  -5.3748593180691639e-02 -5.9931564306773669e-02 1.3284005919405484e-02  -7.0186596897328701e-02 -1.2314275696196705e-01 1.7433465530442470e-02  -6.7930555588421815e-02 -2.0707073929944053e-01 4.2967117794028176e-02  -5.3034082671878813e-02 -3.0026967192597664e-01 9.9904013584412588e-02  -3.3227112710873308e-02 -3.6990707462346384e-01 1.7476719478715386e-01  -1.2550902536148878e-02 -3.3282129977625274e-01 1.9912907750008046e-01  -6.2309046811037661e-12 3.1137314948637140e-11 -2.4904966977601362e-11  -5.0697224196483148e-12 -5.4053428399924996e-12 1.0474732192733427e-11  -2.2708638842689366e-02 6.2564795766514858e-03 -1.4614268147923104e-02  -5.2141172380739231e-02 -3.6407909786204645e-02 -3.7067499668311910e-02  -6.3654966816548253e-02 -1.1450810071839906e-01 -5.6014890636215231e-02  -5.7313593741210811e-02 -2.2245748082830719e-01 -5.0670444530844037e-02  -4.2378763580198542e-02 -3.4991938678238399e-01 -4.8262412677550492e-03  -2.6651753867694028e-02 -4.5753210727453064e-01 7.6144179310142945e-02  -1.1235327817125107e-02 -4.3060094729848020e-01 1.3271614091726081e-01  -1.3780310226252368e-11 3.5280667276538225e-11 -2.1501911362520332e-11  -8.3609785761495914e-12 -6.1252114491594511e-12 1.4486412069913968e-11  -1.1118231234423237e-02 4.0175857311134100e-02 -3.7510364629410820e-02  -1.7461478367141625e-02 4.1661224679917976e-03 -8.3833040811500670e-02  -5.1681709501394391e-03 -7.1726709699932334e-02 -1.2861431652029842e-01  1.7354139207371277e-02 -1.8216420541492429e-01 -1.4836485150468187e-01  3.2613780257835234e-02 -3.2371564094979233e-01 -1.1965788020589857e-01  2.8188143138228039e-02 -4.6128103477757754e-01 -3.6734036265924974e-02  8.1869689076601304e-03 -4.6460926877148623e-01 5.4126985580470577e-02  -2.2727153492496655e-11 3.9978687027542037e-11 -1.7253976025699558e-11  -1.2181811115397068e-11 -6.9410033276540162e-12 1.9122925465353546e-11  1.3104152342939601e-02 5.5385851070784586e-02 -4.8019725648396516e-02  4.9119065704527731e-02 3.3183366485727887e-02 -1.1086781203187002e-01  1.0288139839564581e-01 -1.9767899245681009e-02 -1.7729850347683529e-01  1.5685203144111903e-01 -1.0186999229671623e-01 -2.2280962964864026e-01  1.8046997678905718e-01 -2.1907865108790392e-01 -2.1850813512164874e-01  1.4599304395319024e-01 -3.5327420906075879e-01 -1.4620788310846233e-01  5.4622035620544018e-02 -3.9495330794280692e-01 -3.1407049208806104e-02  -3.3114400110889619e-11 4.5304204832063988e-11 -1.2188916542754669e-11  -1.6535217639557231e-11 -7.8648199064446089e-12 2.4402702081260941e-11  3.3536413013993682e-02 3.1628332175554275e-02 -3.6988269317479006e-02  1.0020077081644008e-01 2.4602601927812356e-02 -9.4967512194049419e-02  1.8255806912657668e-01 5.9630441309973525e-03 -1.6128187859073040e-01  2.6436143905955278e-01 -2.4886121649927651e-02 -2.1711001740514346e-01  3.1029299570898639e-01 -7.4381487854707551e-02 -2.3719594246301723e-01  2.7236052855837567e-01 -1.4206703913301721e-01 -1.9732788022884029e-01  1.1923702293340943e-01 -1.8637908153204163e-01 -9.6341640320239563e-02  -4.4946268928924837e-11 5.1339377193926339e-11 -6.3886673729030008e-12  -2.1401103111884368e-11 -8.9126483970858317e-12 3.0314417642784974e-11  -2.4249491303862669e-11 -5.0098258874697876e-12 2.9259705769391076e-11  -2.7478908037892325e-11 0.0000000000000000e+00 2.7478908037892325e-11  -3.1137314948637140e-11 6.2309046811037661e-12 2.4904966977601362e-11  -3.5280667276538225e-11 1.3780310226252368e-11 2.1501911362520332e-11  -3.9978687027542037e-11 2.2727153492496655e-11 1.7253976025699558e-11  -4.5304204832063988e-11 3.3114400110889619e-11 1.2188916542754669e-11  -5.1339377193926339e-11 4.4946268928924837e-11 6.3886673729030008e-12  -5.8174798311938503e-11 5.8174798311938503e-11 0.0000000000000000e+00  5.4998228193881005e-12 -5.4998228193881005e-12 0.0000000000000000e+00  6.2330141048505538e-12 -4.1111558601869547e-12 -2.1214419110293647e-12  7.0623507042455458e-12 -2.2922219677923295e-12 -4.7703507810581414e-12  8.0027096061030534e-12 0.0000000000000000e+00 -8.0027096061030534e-12  9.0685237097432037e-12 2.8015922914903513e-12 -1.1870504579292174e-11  1.0274781025998436e-11 6.1387561700598781e-12 -1.6415313552897715e-11  1.1643797037663717e-11 1.0025535956970089e-11 -2.1669777083843655e-11  1.3193668380040435e-11 1.4455325825224463e-11 -2.7649882383684599e-11  1.4951151428022058e-11 1.9398260775460585e-11 -3.4346303579013693e-11  4.1111558601869547e-12 -6.2330141048505538e-12 2.1214419110293647e-12  -6.5764624401057348e-03 -1.2258042359579502e-02 6.7042818157788620e-02  -1.5992118285604318e-02 -1.7883616149650561e-02 9.6677169273333335e-02  -1.9924501729029376e-02 -2.6422612445560482e-02 1.2860911513023243e-01  -1.6088309361117603e-02 -3.7853323087214119e-02 1.7923976556240384e-01  -6.3664109877075159e-03 -4.8830924343029491e-02 2.5058802497994903e-01  3.2866517357268421e-03 -5.3168956231495423e-02 3.2261011567790132e-01  5.8423842120858271e-03 -3.9987226172509827e-02 3.2057019072068460e-01  1.1175060876666976e-11 2.1979307263109149e-11 -3.3155700407405675e-11  2.2922219677923295e-12 -7.0623507042455458e-12 4.7703507810581414e-12  -1.8791504472974369e-02 -2.3123014663713137e-02 6.5279996821724473e-02  -4.7190572441115713e-02 -3.9531074313434389e-02 9.1627184336543946e-02  -6.4966493877386899e-02 -6.4954089528980977e-02 1.1942854623112939e-01  -6.7581419868510628e-02 -9.8580718418509489e-02 1.7329097662685189e-01  -5.6828559507952514e-02 -1.3238056215958394e-01 2.5891539813073872e-01  -3.7136789114910418e-02 -1.5009554519964219e-01 3.4884082824146345e-01  -1.3468229230890971e-02 -1.2222791005505007e-01 3.4379075855222574e-01  6.2309046811037661e-12 2.4904966977601362e-11 -3.1137314948637140e-11  0.0000000000000000e+00 -8.0027096061030534e-12 8.0027096061030534e-12  -3.0543138447110551e-02 -1.2756161134979349e-02 3.4057494031282887e-02  -7.7613527296745810e-02 -3.6708934210050059e-02 3.4729448614854552e-02  -1.0972721230843549e-01 -7.9535335937968757e-02 3.7509003496792502e-02  -1.2022587413211476e-01 -1.3757546296928425e-01 7.1541122674581348e-02  -1.0945529296717085e-01 -2.0027425866076853e-01 1.4902098527451979e-01  -7.8379269861170164e-02 -2.4333684058267413e-01 2.4719630134841064e-01  -3.0980593846670630e-02 -2.1415995163936863e-01 2.7164687451059377e-01