<?xml version="1.0"?>
<VTKFile type="UnstructuredGrid"  version="0.1"  >
<UnstructuredGrid>
<Piece  NumberOfPoints="16641" NumberOfCells="32768">
<Points>
<DataArray  type="Float64"  NumberOfComponents="3"  format="ascii">0 0 0  0.0078125 0 0  0.015625 0 0  0.0234375 0 0  0.03125 0 0  0.0390625 0 0  0.046875 0 0  0.0546875 0 0  0.0625 0 0  0.0703125 0 0  0.078125 0 0  0.0859375 0 0  0.09375 0 0  0.1015625 0 0  0.109375 0 0  0.1171875 0 0  0.125 0 0  0.1328125 0 0  0.140625 0 0  0.1484375 0 0  0.15625 0 0  0.1640625 0 0  0.171875 0 0  0.1796875 0 0  0.1875 0 0  0.1953125 0 0  0.203125 0 0  0.2109375 0 0  0.21875 0 0  0.2265625 0 0  0.234375 0 0  0.2421875 0 0  0.25 0 0  0.2578125 0 0  0.265625 0 0  0.2734375 0 0  0.28125 0 0  0.2890625 0 0  0.296875 0 0  0.3046875 0 0  0.3125 0 0  0.3203125 0 0  0.328125 0 0  0.3359375 0 0  0.34375 0 0  0.3515625 0 0  0.359375 0 0  0.3671875 0 0  0.375 0 0  0.3828125 0 0  0.390625 0 0  0.3984375 0 0  0.40625 0 0  0.4140625 0 0  0.421875 0 0  0.4296875 0 0  0.4375 0 0  0.4453125 0 0  0.453125 0 0  0.4609375 0 0  0.46875 0 0  0.4765625 0 0  0.484375 0 0  0.4921875 0 0  0.5 0 0  0.5078125 0 0  0.515625 0 0  0.5234375 0 0  0.53125 0 0  0.5390625 0 0  0.546875 0 0  0.5546875 0 0  0.5625 0 0  0.5703125 0 0  0.578125 0 0  0.5859375 0 0  0.59375 0 0  0.6015625 0 0  0.609375 0 0  0.6171875 0 0  0.625 0 0  0.6328125 0 0  0.640625 0 0  0.6484375 0 0  0.65625 0 0  0.6640625 0 0  0.671875 0 0  0.6796875 0 0  0.6875 0 0  0.6953125 0 0  0.703125 0 0  0.7109375 0 0  0.71875 0 0  0.7265625 0 0  0.734375 0 0  0.7421875 0 0  0.75 0 0  0.7578125 0 0  0.765625 0 0  0.7734375 0 0  0.78125 0 0  0.7890625 0 0  0.796875 0 0  0.8046875 0 0  0.8125 0 0  0.8203125 0 0  0.828125 0 0  0.8359375 0 0  0.84375 0 0  0.8515625 0 0  0.859375 0 0  0.8671875 0 0  0.875 0 0  0.8828125 0 0  0.890625 0 0  0.8984375 0 0  0.90625 0 0  0.9140625 0 0  0.921875 0 0  0.9296875 0 0  0.9375 0 0  0.9453125 0 0  0.953125 0 0  0.9609375 0 0  0.96875 0 0  0.9765625 0 0  0.984375 0 0  0.9921875 0 0  1 0 0  0 0.0078125 0  0.0078125 0.0078125 0  0.015625 0.0078125 0  0.0234375 0.0078125 0  0.03125 0.0078125 0  0.0390625 0.0078125 0  0.046875 0.0078125 0  0.0546875 0.0078125 0  0.0625 0.0078125 0  0.0703125 0.0078125 0  0.078125 0.0078125 0  0.0859375 0.0078125 0  0.09375 0.0078125 0  0.1015625 0.0078125 0  0.109375 0.0078125 0  0.1171875 0.0078125 0  0.125 0.0078125 0  0.1328125 0.0078125 0  0.140625 0.0078125 0  0.1484375 0.0078125 0  0.15625 0.0078125 0  0.1640625 0.0078125 0  0.171875 0.0078125 0  0.1796875 0.0078125 0  0.1875 0.0078125 0  0.1953125 0.0078125 0  0.203125 0.0078125 0  0.2109375 0.0078125 0  0.21875 0.0078125 0  0.2265625 0.0078125 0  0.234375 0.0078125 0  0.2421875 0.0078125 0  0.25 0.0078125 0  0.2578125 0.0078125 0  0.265625 0.0078125 0  0.2734375 0.0078125 0  0.28125 0.0078125 0  0.2890625 0.0078125 0  0.296875 0.0078125 0  0.3046875 0.0078125 0  0.3125 0.0078125 0  0.3203125 0.0078125 0  0.328125 0.0078125 0  0.3359375 0.0078125 0  0.34375 0.0078125 0  0.3515625 0.0078125 0  0.359375 0.0078125 0  0.3671875 0.0078125 0  0.375 0.0078125 0  0.3828125 0.0078125 0  0.390625 0.0078125 0  0.3984375 0.0078125 0  0.40625 0.0078125 0  0.4140625 0.0078125 0  0.421875 0.0078125 0  0.4296875 0.0078125 0  0.4375 0.0078125 0  0.4453125 0.0078125 0  0.453125 0.0078125 0  0.4609375 0.0078125 0  0.46875 0.0078125 0  0.4765625 0.0078125 0  0.484375 0.0078125 0  0.4921875 0.0078125 0  0.5 0.0078125 0  0.5078125 0.0078125 0  0.515625 0.0078125 0  0.5234375 0.0078125 0  0.53125 0.0078125 0  0.5390625 0.0078125 0  0.546875 0.0078125 0  0.5546875 0.0078125 0  0.5625 0.0078125 0  0.5703125 0.0078125 0  0.578125 0.0078125 0  0.5859375 0.0078125 0  0.59375 0.0078125 0  0.6015625 0.0078125 0  0.609375 0.0078125 0  0.6171875 0.0078125 0  0.625 0.0078125 0  0.6328125 0.0078125 0  0.640625 0.0078125 0  0.6484375 0.0078125 0  0.65625 0.0078125 0  0.6640625 0.0078125 0  0.671875 0.0078125 0  0.6796875 0.0078125 0  0.6875 0.0078125 0  0.6953125 0.0078125 0  0.703125 0.0078125 0  0.7109375 0.0078125 0  0.71875 0.0078125 0  0.7265625 0.0078125 0  0.734375 0.0078125 0  0.7421875 0.0078125 0  0.75 0.0078125 0  0.7578125 0.0078125 0  0.765625 0.0078125 0  0.7734375 0.0078125 0  0.78125 0.0078125 0  0.7890625 0.0078125 0  0.796875 0.0078125 0  0.8046875 0.0078125 0  0.8125 0.0078125 0  0.8203125 0.0078125 0  0.828125 0.0078125 0  0.8359375 0.0078125 0  0.84375 0.0078125 0  0.8515625 0.0078125 0  0.859375 0.0078125 0  0.8671875 0.0078125 0  0.875 0.0078125 0  0.8828125 0.0078125 0  0.890625 0.0078125 0  0.8984375 0.0078125 0  0.90625 0.0078125 0  0.9140625 0.0078125 0  0.921875 0.0078125 0  0.9296875 0.0078125 0  0.9375 0.0078125 0  0.9453125 0.0078125 0  0.953125 0.0078125 0  0.9609375 0.0078125 0  0.96875 0.0078125 0  0.9765625 0.0078125 0  0.984375 0.0078125 0  0.9921875 0.0078125 0  1 0.0078125 0  0 0.015625 0  0.0078125 0.015625 0  0.015625 0.015625 0  0.0234375 0.015625 0  0.03125 0.015625 0  0.0390625 0.015625 0  0.046875 0.015625 0  0.0546875 0.015625 0  0.0625 0.015625 0  0.0703125 0.015625 0  0.078125 0.015625 0  0.0859375 0.015625 0  0.09375 0.015625 0  0.1015625 0.015625 0  0.109375 0.015625 0  0.1171875 0.015625 0  0.125 0.015625 0  0.1328125 0.015625 0  0.140625 0.015625 0  0.1484375 0.015625 0  0.15625 0.015625 0  0.1640625 0.015625 0  0.171875 0.015625 0  0.1796875 0.015625 0  0.1875 0.015625 0  0.1953125 0.015625 0  0.203125 0.015625 0  0.2109375 0.015625 0  0.21875 0.015625 0  0.2265625 0.015625 0  0.234375 0.015625 0  0.2421875 0.015625 0  0.25 0.015625 0  0.2578125 0.015625 0  0.265625 0.015625 0  0.2734375 0.015625 0  0.28125 0.015625 0  0.2890625 0.015625 0  0.296875 0.015625 0  0.3046875 0.015625 0  0.3125 0.015625 0  0.3203125 0.015625 0  0.328125 0.015625 0  0.3359375 0.015625 0  0.34375 0.015625 0  0.3515625 0.015625 0  0.359375 0.015625 0  0.3671875 0.015625 0  0.375 0.015625 0  0.3828125 0.015625 0  0.390625 0.015625 0  0.3984375 0.015625 0  0.40625 0.015625 0  0.4140625 0.015625 0  0.421875 0.015625 0  0.4296875 0.015625 0  0.4375 0.015625 0  0.4453125 0.015625 0  0.453125 0.015625 0  0.4609375 0.015625 0  0.46875 0.015625 0  0.4765625 0.015625 0  0.484375 0.015625 0  0.4921875 0.015625 0  0.5 0.015625 0  0.5078125 0.015625 0  0.515625 0.015625 0  0.5234375 0.015625 0  0.53125 0.015625 0  0.5390625 0.015625 0  0.546875 0.015625 0  0.5546875 0.015625 0  0.5625 0.015625 0  0.5703125 0.015625 0  0.578125 0.015625 0  0.5859375 0.015625 0  0.59375 0.015625 0  0.6015625 0.015625 0  0.609375 0.015625 0  0.6171875 0.015625 0  0.625 0.015625 0  0.6328125 0.015625 0  0.640625 0.015625 0  0.6484375 0.015625 0  0.65625 0.015625 0  0.6640625 0.015625 0  0.671875 0.015625 0  0.6796875 0.015625 0  0.6875 0.015625 0  0.6953125 0.015625 0  0.703125 0.015625 0  0.7109375 0.015625 0  0.71875 0.015625 0  0.7265625 0.015625 0  0.734375 0.015625 0  0.7421875 0.015625 0  0.75 0.015625 0  0.7578125 0.015625 0  0.765625 0.015625 0  0.7734375 0.015625 0  0.78125 0.015625 0  0.7890625 0.015625 0  0.796875 0.015625 0  0.8046875 0.015625 0  0.8125 0.015625 0  0.8203125 0.015625 0  0.828125 0.015625 0  0.8359375 0.015625 0  0.84375 0.015625 0  0.8515625 0.015625 0  0.859375 0.015625 0  0.8671875 0.015625 0  0.875 0.015625 0  0.8828125 0.015625 0  0.890625 0.015625 0  0.8984375 0.015625 0  0.90625 0.015625 0  0.9140625 0.015625 0  0.921875 0.015625 0  0.9296875 0.015625 0  0.9375 0.015625 0  0.9453125 0.015625 0  0.953125 0.015625 0  0.9609375 0.015625 0  0.96875 0.015625 0  0.9765625 0.015625 0  0.984375 0.015625 0  0.9921875 0.015625 0  1 0.015625 0  0 0.0234375 0  0.0078125 0.0234375 0  0.015625 0.0234375 0  0.0234375 0.0234375 0  0.03125 0.0234375 0  0.0390625 0.0234375 0  0.046875 0.0234375 0  0.0546875 0.0234375 0  0.0625 0.0234375 0  0.0703125 0.0234375 0  0.078125 0.0234375 0  0.0859375 0.0234375 0  0.09375 0.0234375 0  0.1015625 0.0234375 0  0.109375 0.0234375 0  0.1171875 0.0234375 0  0.125 0.0234375 0  0.1328125 0.0234375 0  0.140625 0.0234375 0  0.1484375 0.0234375 0  0.15625 0.0234375 0  0.1640625 0.0234375 0  0.171875 0.0234375 0  0.1796875 0.0234375 0  0.1875 0.0234375 0  0.1953125 0.0234375 0  0.203125 0.0234375 0  0.2109375 0.0234375 0  0.21875 0.0234375 0  0.2265625 0.0234375 0  0.234375 0.0234375 0  0.2421875 0.0234375 0  0.25 0.0234375 0  0.2578125 0.0234375 0  0.265625 0.0234375 0  0.2734375 0.0234375 0  0.28125 0.0234375 0  0.2890625 0.0234375 0  0.296875 0.0234375 0  0.3046875 0.0234375 0  0.3125 0.0234375 0  0.3203125 0.0234375 0  0.328125 0.0234375 0  0.3359375 0.0234375 0  0.34375 0.0234375 0  0.3515625 0.0234375 0  0.359375 0.0234375 0  0.3671875 0.0234375 0  0.375 0.0234375 0  0.3828125 0.0234375 0  0.390625 0.0234375 0  0.3984375 0.0234375 0  0.40625 0.0234375 0  0.4140625 0.0234375 0  0.421875 0.0234375 0  0.4296875 0.0234375 0  0.4375 0.0234375 0  0.4453125 0.0234375 0  0.453125 0.0234375 0  0.4609375 0.0234375 0  0.46875 0.0234375 0  0.4765625 0.0234375 0  0.484375 0.0234375 0  0.4921875 0.0234375 0  0.5 0.0234375 0  0.5078125 0.0234375 0  0.515625 0.0234375 0  0.5234375 0.0234375 0  0.53125 0.0234375 0  0.5390625 0.0234375 0  0.546875 0.0234375 0  0.5546875 0.0234375 0  0.5625 0.0234375 0  0.5703125 0.0234375 0  0.578125 0.0234375 0  0.5859375 0.0234375 0  0.59375 0.0234375 0  0.6015625 0.0234375 0  0.609375 0.0234375 0  0.6171875 0.0234375 0  0.625 0.0234375 0  0.6328125 0.0234375 0  0.640625 0.0234375 0  0.6484375 0.0234375 0  0.65625 0.0234375 0  0.6640625 0.0234375 0  0.671875 0.0234375 0  0.6796875 0.0234375 0  0.6875 0.0234375 0  0.6953125 0.0234375 0  0.703125 0.0234375 0  0.7109375 0.0234375 0  0.71875 0.0234375 0  0.7265625 0.0234375 0  0.734375 0.0234375 0  0.7421875 0.0234375 0  0.75 0.0234375 0  0.7578125 0.0234375 0  0.765625 0.0234375 0  0.7734375 0.0234375 0  0.78125 0.0234375 0  0.7890625 0.0234375 0  0.796875 0.0234375 0  0.8046875 0.0234375 0  0.8125 0.0234375 0  0.8203125 0.0234375 0  0.828125 0.0234375 0  0.8359375 0.0234375 0  0.84375 0.0234375 0  0.8515625 0.0234375 0  0.859375 0.0234375 0  0.8671
[...]
<PointData  Vectors="f_1576"> 
<DataArray  type="Float64"  Name="f_1576"  NumberOfComponents="3" format="ascii">0.0000000000000000e+00 0.0000000000000000e+00 0.0000000000000000e+00  1.1987771886268206e-12 0.0000000000000000e+00 0.0000000000000000e+00  2.4163622491801817e-12 0.0000000000000000e+00 0.0000000000000000e+00  3.6529737568180565e-12 0.0000000000000000e+00 0.0000000000000000e+00  4.9088302866984179e-12 0.0000000000000000e+00 0.0000000000000000e+00  6.1841504139792391e-12 0.0000000000000000e+00 0.0000000000000000e+00  7.4791908777349647e-12 0.0000000000000000e+00 0.0000000000000000e+00  8.7941529058888079e-12 0.0000000000000000e+00 0.0000000000000000e+00  1.0129300176409117e-11 0.0000000000000000e+00 0.0000000000000000e+00  1.1484826978325202e-11 0.0000000000000000e+00 0.0000000000000000e+00  1.2861003928499315e-11 0.0000000000000000e+00 0.0000000000000000e+00  1.4258080827111996e-11 0.0000000000000000e+00 0.0000000000000000e+00  1.5676196452041324e-11 0.0000000000000000e+00 0.0000000000000000e+00  1.7115794892497149e-11 0.0000000000000000e+00 0.0000000000000000e+00  1.8576973292994126e-11 0.0000000000000000e+00 0.0000000000000000e+00  2.0060009209288410e-11 0.0000000000000000e+00 0.0000000000000000e+00  2.1565138563772734e-11 0.0000000000000000e+00 0.0000000000000000e+00  2.3092722178930103e-11 0.0000000000000000e+00 0.0000000000000000e+00  2.4642898832638593e-11 0.0000000000000000e+00 0.0000000000000000e+00  2.6215890569503131e-11 0.0000000000000000e+00 0.0000000000000000e+00  2.7812030456431103e-11 0.0000000000000000e+00 0.0000000000000000e+00  2.9431734827056744e-11 0.0000000000000000e+00 0.0000000000000000e+00  3.1075086948106900e-11 0.0000000000000000e+00 0.0000000000000000e+00  3.2742419886488960e-11 0.0000000000000000e+00 0.0000000000000000e+00  3.4434066709110311e-11 0.0000000000000000e+00 0.0000000000000000e+00  3.6150110682697800e-11 0.0000000000000000e+00 0.0000000000000000e+00  3.7890857118583199e-11 0.0000000000000000e+00 0.0000000000000000e+00  3.9656833372703204e-11 0.0000000000000000e+00 0.0000000000000000e+00  4.1448178222935894e-11 0.0000000000000000e+00 0.0000000000000000e+00  4.3265280247339888e-11 0.0000000000000000e+00 0.0000000000000000e+00  4.5108194957066416e-11 0.0000000000000000e+00 0.0000000000000000e+00  4.6977310930174099e-11 0.0000000000000000e+00 0.0000000000000000e+00  4.8873016744721554e-11 0.0000000000000000e+00 0.0000000000000000e+00  5.0795812001069862e-11 0.0000000000000000e+00 0.0000000000000000e+00  5.2745308121160406e-11 0.0000000000000000e+00 0.0000000000000000e+00  5.4722448794564116e-11 0.0000000000000000e+00 0.0000000000000000e+00  5.6727511577037149e-11 0.0000000000000000e+00 0.0000000000000000e+00  5.8760218912823348e-11 0.0000000000000000e+00 0.0000000000000000e+00  6.0821958580703495e-11 0.0000000000000000e+00 0.0000000000000000e+00  6.2912175469165277e-11 0.0000000000000000e+00 0.0000000000000000e+00  6.5031535712023469e-11 0.0000000000000000e+00 0.0000000000000000e+00  6.7179650731219454e-11 0.0000000000000000e+00 0.0000000000000000e+00  6.9358074838987704e-11 0.0000000000000000e+00 0.0000000000000000e+00  7.1566308434967141e-11 0.0000000000000000e+00 0.0000000000000000e+00  7.3805239697577463e-11 0.0000000000000000e+00 0.0000000000000000e+00  7.6074757604516208e-11 0.0000000000000000e+00 0.0000000000000000e+00  7.8375084200388301e-11 0.0000000000000000e+00 0.0000000000000000e+00  8.0707107663613442e-11 0.0000000000000000e+00 0.0000000000000000e+00  8.3070772483040400e-11 0.0000000000000000e+00 0.0000000000000000e+00  8.5466522747879026e-11 0.0000000000000000e+00 0.0000000000000000e+00  8.7894913569641631e-11 0.0000000000000000e+00 0.0000000000000000e+00  9.0355944948328215e-11 0.0000000000000000e+00 0.0000000000000000e+00  9.2849949950846167e-11 0.0000000000000000e+00 0.0000000000000000e+00  9.5377705733312723e-11 0.0000000000000000e+00 0.0000000000000000e+00  9.7940211496450047e-11 0.0000000000000000e+00 0.0000000000000000e+00  1.0053524679420889e-10 0.0000000000000000e+00 0.0000000000000000e+00  1.0316625331796558e-10 0.0000000000000000e+00 0.0000000000000000e+00  1.0583178777778812e-10 0.0000000000000000e+00 0.0000000000000000e+00  1.0853373755281837e-10 0.0000000000000000e+00 0.0000000000000000e+00  1.1127054833082184e-10 0.0000000000000000e+00 0.0000000000000000e+00  1.1404410749094041e-10 0.0000000000000000e+00 0.0000000000000000e+00  1.1685419298856914e-10 0.0000000000000000e+00 0.0000000000000000e+00  1.1970102686831297e-10 0.0000000000000000e+00 0.0000000000000000e+00  1.2258571935319651e-10 0.0000000000000000e+00 0.0000000000000000e+00  1.2550882555473208e-10 0.0000000000000000e+00 0.0000000000000000e+00  1.2846934627219753e-10 0.0000000000000000e+00 0.0000000000000000e+00  1.3146927990703716e-10 0.0000000000000000e+00 0.0000000000000000e+00  1.3450773828083129e-10 0.0000000000000000e+00 0.0000000000000000e+00  1.3758594263890700e-10 0.0000000000000000e+00 0.0000000000000000e+00  1.4070422604817168e-10 0.0000000000000000e+00 0.0000000000000000e+00  1.4386281055323025e-10 0.0000000000000000e+00 0.0000000000000000e+00  1.4706269535480487e-10 0.0000000000000000e+00 0.0000000000000000e+00  1.5030365840829063e-10 0.0000000000000000e+00 0.0000000000000000e+00  1.5358603278059491e-10 0.0000000000000000e+00 0.0000000000000000e+00  1.5691137278395217e-10 0.0000000000000000e+00 0.0000000000000000e+00  1.6027867921764027e-10 0.0000000000000000e+00 0.0000000000000000e+00  1.6368972843849861e-10 0.0000000000000000e+00 0.0000000000000000e+00  1.6714407635731732e-10 0.0000000000000000e+00 0.0000000000000000e+00  1.7064349933093581e-10 0.0000000000000000e+00 0.0000000000000000e+00  1.7418644304711961e-10 0.0000000000000000e+00 0.0000000000000000e+00  1.7777490590731304e-10 0.0000000000000000e+00 0.0000000000000000e+00  1.8140822177770133e-10 0.0000000000000000e+00 0.0000000000000000e+00  1.8508861110433372e-10 0.0000000000000000e+00 0.0000000000000000e+00  1.8881562979800037e-10 0.0000000000000000e+00 0.0000000000000000e+00  1.9258838968028158e-10 0.0000000000000000e+00 0.0000000000000000e+00  1.9640977733104137e-10 0.0000000000000000e+00 0.0000000000000000e+00  2.0027957070567481e-10 0.0000000000000000e+00 0.0000000000000000e+00  2.0419665958115729e-10 0.0000000000000000e+00 0.0000000000000000e+00  2.0816393053735283e-10 0.0000000000000000e+00 0.0000000000000000e+00  2.1218071744044664e-10 0.0000000000000000e+00 0.0000000000000000e+00  2.1624702029043874e-10 0.0000000000000000e+00 0.0000000000000000e+00  2.2036394931035375e-10 0.0000000000000000e+00 0.0000000000000000e+00  2.2453439108005568e-10 0.0000000000000000e+00 0.0000000000000000e+00  2.2875501493047068e-10 0.0000000000000000e+00 0.0000000000000000e+00  2.3302781926304306e-10 0.0000000000000000e+00 0.0000000000000000e+00  2.3735369225619252e-10 0.0000000000000000e+00 0.0000000000000000e+00  2.4173374413294368e-10 0.0000000000000000e+00 0.0000000000000000e+00  2.4616841898250641e-10 0.0000000000000000e+00 0.0000000000000000e+00  2.5065638453725114e-10 0.0000000000000000e+00 0.0000000000000000e+00  2.5520030533243698e-10 0.0000000000000000e+00 0.0000000000000000e+00  2.5979973727885408e-10 0.0000000000000000e+00 0.0000000000000000e+00  2.6445601264413199e-10 0.0000000000000000e+00 0.0000000000000000e+00  2.6916890938366578e-10 0.0000000000000000e+00 0.0000000000000000e+00  2.7393953772048008e-10 0.0000000000000000e+00 0.0000000000000000e+00  2.7876834174378473e-10 0.0000000000000000e+00 0.0000000000000000e+00  2.8365576554278960e-10 0.0000000000000000e+00 0.0000000000000000e+00  2.8860314138512422e-10 0.0000000000000000e+00 0.0000000000000000e+00  2.9361113540460337e-10 0.0000000000000000e+00 0.0000000000000000e+00  2.9867863737820244e-10 0.0000000000000000e+00 0.0000000000000000e+00  3.0380920001960021e-10 0.0000000000000000e+00 0.0000000000000000e+00  3.0900215719498192e-10 0.0000000000000000e+00 0.0000000000000000e+00  3.1425573254750816e-10 0.0000000000000000e+00 0.0000000000000000e+00  3.1957414492467251e-10 0.0000000000000000e+00 0.0000000000000000e+00  3.2495739432647497e-10 0.0000000000000000e+00 0.0000000000000000e+00  3.3040414848528599e-10 0.0000000000000000e+00 0.0000000000000000e+00  3.3591529557952526e-10 0.0000000000000000e+00 0.0000000000000000e+00  3.4149394423366175e-10 0.0000000000000000e+00 0.0000000000000000e+00  3.4714009444769545e-10 0.0000000000000000e+00 0.0000000000000000e+00  3.5285196986478695e-10 0.0000000000000000e+00 0.0000000000000000e+00  3.5863312319861507e-10 0.0000000000000000e+00 0.0000000000000000e+00  3.6448355444917979e-10 0.0000000000000000e+00 0.0000000000000000e+00  3.7040370770569098e-10 0.0000000000000000e+00 0.0000000000000000e+00  3.7639358296814862e-10 0.0000000000000000e+00 0.0000000000000000e+00  3.8245717703944138e-10 0.0000000000000000e+00 0.0000000000000000e+00  3.8858916084905104e-10 0.0000000000000000e+00 0.0000000000000000e+00  3.9479619573512537e-10 0.0000000000000000e+00 0.0000000000000000e+00  4.0107384080556585e-10 0.0000000000000000e+00 0.0000000000000000e+00  4.0742831330931040e-10 0.0000000000000000e+00 0.0000000000000000e+00  4.1385561644347035e-10 0.0000000000000000e+00 0.0000000000000000e+00  0.0000000000000000e+00 -1.1987771886268206e-12 0.0000000000000000e+00  4.1885839241473377e-10 -2.5141284193397340e-10 0.0000000000000000e+00  2.4411330595830449e-11 -2.8313864447460091e-10 0.0000000000000000e+00  -1.8325848130662514e-10 -3.8397372434384458e-10 0.0000000000000000e+00  -1.6714008649332257e-10 -5.2957275717413488e-10 0.0000000000000000e+00  1.5284330745490848e-10 -6.9949738015773200e-10 0.0000000000000000e+00  8.0813721686778806e-10 -8.7782387435397791e-10 0.0000000000000000e+00  1.8084684860752986e-09 -1.0565310171878339e-09 0.0000000000000000e+00  3.1514981319036295e-09 -1.2307308262793359e-09 0.0000000000000000e+00  4.8270775709902125e-09 -1.3976279022998028e-09 0.0000000000000000e+00  6.8206409270521462e-09 -1.5556897992041741e-09 0.0000000000000000e+00  9.1151559772351121e-09 -1.7041452901600529e-09 0.0000000000000000e+00  1.1692356263748316e-08 -1.8426983567493282e-09 0.0000000000000000e+00  1.4533527506466193e-08 -1.9713488133565882e-09 0.0000000000000000e+00  1.7620004483243079e-08 -2.0902798623934071e-09 0.0000000000000000e+00  2.0933484751184395e-08 -2.1997864155243185e-09 0.0000000000000000e+00  2.4456222574853470e-08 -2.3002285839957004e-09 0.0000000000000000e+00  2.8171143529043263e-08 -2.3920012897499232e-09 0.0000000000000000e+00  3.2061906768410253e-08 -2.4755144410054664e-09 0.0000000000000000e+00  3.6112932449983148e-08 -2.5511799322391893e-09 0.0000000000000000e+00  4.0309405702210199e-08 -2.6194029601606106e-09 0.0000000000000000e+00  4.4637265300684348e-08 -2.6805766703552614e-09 0.0000000000000000e+00  4.9083182462883457e-08 -2.7350789497809780e-09 0.0000000000000000e+00  5.3634533092594694e-08 -2.7832704058150526e-09 0.0000000000000000e+00  5.8279366749180994e-08 -2.8254933618493405e-09 0.0000000000000000e+00  6.3006372869045535e-08 -2.8620715970817390e-09 0.0000000000000000e+00  6.7804846959340637e-08 -2.8933102198813732e-09 0.0000000000000000e+00  7.2664656569632058e-08 -2.9194964362710962e-09 0.0000000000000000e+00  7.7576206791718505e-08 -2.9408997043178786e-09 0.0000000000000000e+00  8.2530408507253128e-08 -2.9577725668000765e-09 0.0000000000000000e+00  8.7518645719431021e-08 -2.9703513069329057e-09 0.0000000000000000e+00  9.2532745854523313e-08 -2.9788569024663536e-09 0.0000000000000000e+00  9.7564949674833201e-08 -2.9834952269131021e-09 0.0000000000000000e+00  1.0260788396720955e-07 -2.9844582950799836e-09 0.0000000000000000e+00  1.0765453423156046e-07 -2.9819246776668917e-09 0.0000000000000000e+00  1.1269821920123491e-07 -2.9760600511741231e-09 0.0000000000000000e+00  1.1773256636260498e-07 -2.9670180982238614e-09 0.0000000000000000e+00  1.2275148858487128e-07 -2.9549406411338852e-09 0.0000000000000000e+00  1.2774916169355777e-07 -2.9399585439737752e-09 0.0000000000000000e+00  1.3272000259911820e-07 -2.9221918669553038e-09 0.0000000000000000e+00  1.3765864897985480e-07 -2.9017507025691502e-09 0.0000000000000000e+00  1.4255993902034803e-07 -2.8787349812958718e-09 0.0000000000000000e+00  1.4741889264868746e-07 -2.8532354118260272e-09 0.0000000000000000e+00  1.5223069249614696e-07 -2.8253333232003408e-09 0.0000000000000000e+00  1.5699066641117199e-07 -2.7951014038019029e-09 0.0000000000000000e+00  1.6169426919621088e-07 -2.7626036284977840e-09 0.0000000000000000e+00  1.6633706678703675e-07 -2.7278956038490065e-09 0.0000000000000000e+00  1.7091471871122366e-07 -2.6910248768913236e-09 0.0000000000000000e+00  1.7542296271155777e-07 -2.6520309628907945e-09 0.0000000000000000e+00  1.7985759903638154e-07 -2.6109459455581074e-09 0.0000000000000000e+00  1.8421447411931524e-07 -2.5677940260204757e-09 0.0000000000000000e+00  1.8848946703453606e-07 -2.5225921490568126e-09 0.0000000000000000e+00  1.9267847428672269e-07 -2.4753501783048026e-09 0.0000000000000000e+00  1.9677739482304446e-07 -2.4260707331968945e-09 0.0000000000000000e+00  2.0078211704355198e-07 -2.3747497718273891e-09 0.0000000000000000e+00  2.0468850425725549e-07 -2.3213761746188055e-09 0.0000000000000000e+00  2.0849238280273852e-07 -2.2659330106700182e-09 0.0000000000000000e+00  2.1218952650503553e-07 -2.2083964518193611e-09 0.0000000000000000e+00  2.1577564746078082e-07 -2.1487362930616705e-09 0.0000000000000000e+00  2.1924638093917537e-07 -2.0869173160409371e-09 0.0000000000000000e+00  2.2259727561202425e-07 -2.0228977833103290e-09 0.0000000000000000e+00  2.2582378156332794e-07 -1.9566308989693582e-09 0.0000000000000000e+00  2.2892123963114130e-07 -1.8880651105057655e-09 0.0000000000000000e+00  2.3188487230374477e-07 -1.8171435016423043e-09 0.0000000000000000e+00  2.3470977328354792e-07 -1.7438049927653854e-09 0.0000000000000000e+00  2.3739089982655059e-07 -1.6679846219502803e-09 0.0000000000000000e+00  2.3992306452669254e-07 -1.5896138363946655e-09 0.0000000000000000e+00  2.4230092943167136e-07 -1.5086210718162629e-09 0.0000000000000000e+00  2.4451899904853747e-07 -1.4249320716419600e-09 0.0000000000000000e+00  2.4657161767915881e-07 -1.3384710111086218e-09 0.0000000000000000e+00  2.4845296431319497e-07 -1.2491605354270074e-09 0.0000000000000000e+00  2.5015705218400797e-07 -1.1569234112385196e-09 0.0000000000000000e+00  2.5167772821355072e-07 -1.0616823392650687e-09 0.0000000000000000e+00  2.5300867401156779e-07 -9.6336133167951310e-10 0.0000000000000000e+00  2.5414341031648746e-07 -8.6188695416766770e-10 0.0000000000000000e+00  2.5507530132529155e-07 -7.5718897124543716e-10 0.0000000000000000e+00  2.5579756335325499e-07 -6.4920180689598261e-10 0.0000000000000000e+00  2.5630327371573003e-07 -5.3786566867053409e-10 0.0000000000000000e+00  2.5658538538309017e-07 -4.2312821996182137e-10 0.0000000000000000e+00  2.5663674074749565e-07 -3.0494572492156813e-10 0.0000000000000000e+00  2.5645009205099711e-07 -1.8328494277852769e-10 0.0000000000000000e+00  2.5601812381204070e-07 -5.8125455837387818e-11 0.0000000000000000e+00  2.5533347614015156e-07 7.0539754593035298e-11 0.0000000000000000e+00  2.5438877959693684e-07 2.0270075548611821e-10 0.0000000000000000e+00  2.5317668517210734e-07 3.3832895859897683e-10 0.0000000000000000e+00  2.5168990558377402e-07 4.7737480982079639e-10 0.0000000000000000e+00  2.4992125857714598e-07 6.1976507259586811e-10 0.0000000000000000e+00  2.4786371843887878e-07 7.6539931684327378e-10 0.0000000000000000e+00  2.4551046973186885e-07 9.1414742442452734e-10 0.0000000000000000e+00  2.4285496991183209e-07 1.0658466192969840e-09 0.0000000000000000e+00  2.3989101727295292e-07 1.2202963015073287e-09 0.0000000000000000e+00  2.3661282888554069e-07 1.3772555422508770e-09 0.0000000000000000e+00  2.3301512430684568e-07 1.5364391980909886e-09 0.0000000000000000e+00  2.2909321861774856e-07 1.6975114126849267e-09 0.0000000000000000e+00  2.2484312300896647e-07 1.8600819912117927e-09 0.0000000000000000e+00  2.2026165935606912e-07 2.0237013731438935e-09 0.0000000000000000e+00  2.1534658323218991e-07 2.1878534088581869e-09 0.0000000000000000e+00  2.1009671691274434e-07 2.3519507730274114e-09 0.0000000000000000e+00  2.0451209992167207e-07 2.5153268322364308e-09 0.0000000000000000e+00  1.9859414890355254e-07 2.6772289662968518e-09 0.0000000000000000e+00  1.9234583503724423e-07 2.8368097280961901e-09 0.0000000000000000e+00  1.8577187832491404e-07 2.9931183781473081e-09 0.0000000000000000e+00  1.7887895698009970e-07 3.1450912985064861e-09 0.0000000000000000e+00  1.7167594079658954e-07 3.2915395131727365e-09 0.0000000000000000e+00  1.6417414339109371e-07 3.4311405452958077e-09 0.0000000000000000e+00  1.5638759731650964e-07 3.5624215521945501e-09 0.0000000000000000e+00  1.4833335915120927e-07 3.6837464675865128e-09 0.0000000000000000e+00  1.4003183879118808e-07 3.7932990915034992e-09 0.0000000000000000e+00  1.3150716715593092e-07 3.8890666034796517e-09 0.0000000000000000e+00  1.2278759120576410e-07 3.9688172123741872e-09 0.0000000000000000e+00  1.1390591714288689e-07 4.0300791800951252e-09 0.0000000000000000e+00  1.0489998780727205e-07 4.0701140305299255e-09 0.0000000000000000e+00  9.5813219136431371e-08 4.0858897445983366e-09 0.0000000000000000e+00  8.6695175482986997e-08 4.0740473286615675e-09 0.0000000000000000e+00  7.7602212655847325e-08 4.0308679657985458e-09 0.0000000000000000e+00  6.8598177804801708e-08 3.9522308481476642e-09 0.0000000000000000e+00  5.9755162595820366e-08 3.8335746799234016e-09 0.0000000000000000e+00  5.1154331437430756e-08 3.6698480573860159e-09 0.0000000000000000e+00  4.2886792339658086e-08 3.4554598418723437e-09 0.0000000000000000e+00  3.5054486424712650e-08 3.1842065234544137e-09 0.0000000000000000e+00  2.7771233757079017e-08 2.8491758258253341e-09 0.0000000000000000e+00  2.1164343610990954e-08 2.4425800618232962e-09 0.0000000000000000e+00  1.5369939987408543e-08 1.9536650491813745e-09 0.0000000000000000e+00  1.0566413077839343e-08 1.3724236885837016e-09 0.0000000000000000e+00  6.9062346952364351e-09 6.6248007773994644e-10 0.0000000000000000e+00  4.4198076309953649e-09 -2.8383422001621028e-10 0.0000000000000000e+00  5.0740900370271902e-09 -1.3811561061505273e-09 0.0000000000000000e+00  3.6460487962131083e-09 -3.1254261470547995e-09 0.0000000000000000e+00  4.2036196745698362e-10 -6.5172381380484978e-12 0.0000000000000000e+00  0.0000000000000000e+00 -2.4163622491801817e-12 0.0000000000000000e+00  4.4602939917870454e-10 1.1693103429966101e-10 0.0000000000000000e+00  1.0967715971532677e-10 5.2043414716651526e-11 0.0000000000000000e+00  8.7646490759540896e-11 -3.0778827750377324e-10 0.0000000000000000e+00  4.5895456879385677e-10 -8.3791249286258029e-10 0.0000000000000000e+00  1.3638084619960189e-09 -1.4573721326960332e-09 0.0000000000000000e+00  2.8566035439880899e-09 -2.1156806653821469e-09 0.0000000000000000e+00  4.9640963700747776e-09 -2.7819749073842992e-09 0.0000000000000000e+00  7.6892707340237010e-09 -3.4370765816804649e-09 0.0000000000000000e+00  1.1020352561064151e-08 -4.0694131293872449e-09 0.0000000000000000e+00  1.4936269485121834e-08 -4.6721457744314243e-09 0.0000000000000000e+00  1.9410182502954676e-08 -5.2414662297939341e-09 0.0000000000000000e+00  2.4411908244870162e-08 -5.7755190976949144e-09 0.0000000000000000e+00  2.9909529741800611e-08 -6.2737122476230756e-09 0.0000000000000000e+00  3.5870477421706681e-08 -6.7362702360629356e-09 0.0000000000000000e+00  4.2262252253344457e-08 -7.1639403263767942e-09 0.0000000000000000e+00  4.9052904099733396e-08 -7.5577968501605586e-09 0.0000000000000000e+00  5.6211342996936864e-08 -7.9191098123487791e-09 0.0000000000000000e+00  6.3707534136980826e-08 -8.2492562641922618e-09 0.0000000000000000e+00  7.1512613164514960e-08 -8.5496602263146482e-09 0.0000000000000000e+00  7.9598945212921990e-08 -8.8217521274081001e-09 0.0000000000000000e+00  8.7940145498954791e-08 -9.0669416662192415e-09 0.0000000000000000e+00  9.6511072966709577e-08 -9.2865999577751435e-09 0.0000000000000000e+00  1.0528780575169705e-07 -9.4820480217583381e-09 0.0000000000000000e+00  1.1424760432143799e-07 -9.654549788101