<?xml version="1.0"?>
<VTKFile type="UnstructuredGrid"  version="0.1"  >
<UnstructuredGrid>
<Piece  NumberOfPoints="1089" NumberOfCells="2048">
<Points>
<DataArray  type="Float64"  NumberOfComponents="3"  format="ascii">0 0 0  0.03125 0 0  0.0625 0 0  0.09375 0 0  0.125 0 0  0.15625 0 0  0.1875 0 0  0.21875 0 0  0.25 0 0  0.28125 0 0  0.3125 0 0  0.34375 0 0  0.375 0 0  0.40625 0 0  0.4375 0 0  0.46875 0 0  0.5 0 0  0.53125 0 0  0.5625 0 0  0.59375 0 0  0.625 0 0  0.65625 0 0  0.6875 0 0  0.71875 0 0  0.75 0 0  0.78125 0 0  0.8125 0 0  0.84375 0 0  0.875 0 0  0.90625 0 0  0.9375 0 0  0.96875 0 0  1 0 0  0 0.03125 0  0.03125 0.03125 0  0.0625 0.03125 0  0.09375 0.03125 0  0.125 0.03125 0  0.15625 0.03125 0  0.1875 0.03125 0  0.21875 0.03125 0  0.25 0.03125 0  0.28125 0.03125 0  0.3125 0.03125 0  0.34375 0.03125 0  0.375 0.03125 0  0.40625 0.03125 0  0.4375 0.03125 0  0.46875 0.03125 0  0.5 0.03125 0  0.53125 0.03125 0  0.5625 0.03125 0  0.59375 0.03125 0  0.625 0.03125 0  0.65625 0.03125 0  0.6875 0.03125 0  0.71875 0.03125 0  0.75 0.03125 0  0.78125 0.03125 0  0.8125 0.03125 0  0.84375 0.03125 0  0.875 0.03125 0  0.90625 0.03125 0  0.9375 0.03125 0  0.96875 0.03125 0  1 0.03125 0  0 0.0625 0  0.03125 0.0625 0  0.0625 0.0625 0  0.09375 0.0625 0  0.125 0.0625 0  0.15625 0.0625 0  0.1875 0.0625 0  0.21875 0.0625 0  0.25 0.0625 0  0.28125 0.0625 0  0.3125 0.0625 0  0.34375 0.0625 0  0.375 0.0625 0  0.40625 0.0625 0  0.4375 0.0625 0  0.46875 0.0625 0  0.5 0.0625 0  0.53125 0.0625 0  0.5625 0.0625 0  0.59375 0.0625 0  0.625 0.0625 0  0.65625 0.0625 0  0.6875 0.0625 0  0.71875 0.0625 0  0.75 0.0625 0  0.78125 0.0625 0  0.8125 0.0625 0  0.84375 0.0625 0  0.875 0.0625 0  0.90625 0.0625 0  0.9375 0.0625 0  0.96875 0.0625 0  1 0.0625 0  0 0.09375 0  0.03125 0.09375 0  0.0625 0.09375 0  0.09375 0.09375 0  0.125 0.09375 0  0.15625 0.09375 0  0.1875 0.09375 0  0.21875 0.09375 0  0.25 0.09375 0  0.28125 0.09375 0  0.3125 0.09375 0  0.34375 0.09375 0  0.375 0.09375 0  0.40625 0.09375 0  0.4375 0.09375 0  0.46875 0.09375 0  0.5 0.09375 0  0.53125 0.09375 0  0.5625 0.09375 0  0.59375 0.09375 0  0.625 0.09375 0  0.65625 0.09375 0  0.6875 0.09375 0  0.71875 0.09375 0  0.75 0.09375 0  0.78125 0.09375 0  0.8125 0.09375 0  0.84375 0.09375 0  0.875 0.09375 0  0.90625 0.09375 0  0.9375 0.09375 0  0.96875 0.09375 0  1 0.09375 0  0 0.125 0  0.03125 0.125 0  0.0625 0.125 0  0.09375 0.125 0  0.125 0.125 0  0.15625 0.125 0  0.1875 0.125 0  0.21875 0.125 0  0.25 0.125 0  0.28125 0.125 0  0.3125 0.125 0  0.34375 0.125 0  0.375 0.125 0  0.40625 0.125 0  0.4375 0.125 0  0.46875 0.125 0  0.5 0.125 0  0.53125 0.125 0  0.5625 0.125 0  0.59375 0.125 0  0.625 0.125 0  0.65625 0.125 0  0.6875 0.125 0  0.71875 0.125 0  0.75 0.125 0  0.78125 0.125 0  0.8125 0.125 0  0.84375 0.125 0  0.875 0.125 0  0.90625 0.125 0  0.9375 0.125 0  0.96875 0.125 0  1 0.125 0  0 0.15625 0  0.03125 0.15625 0  0.0625 0.15625 0  0.09375 0.15625 0  0.125 0.15625 0  0.15625 0.15625 0  0.1875 0.15625 0  0.21875 0.15625 0  0.25 0.15625 0  0.28125 0.15625 0  0.3125 0.15625 0  0.34375 0.15625 0  0.375 0.15625 0  0.40625 0.15625 0  0.4375 0.15625 0  0.46875 0.15625 0  0.5 0.15625 0  0.53125 0.15625 0  0.5625 0.15625 0  0.59375 0.15625 0  0.625 0.15625 0  0.65625 0.15625 0  0.6875 0.15625 0  0.71875 0.15625 0  0.75 0.15625 0  0.78125 0.15625 0  0.8125 0.15625 0  0.84375 0.15625 0  0.875 0.15625 0  0.90625 0.15625 0  0.9375 0.15625 0  0.96875 0.15625 0  1 0.15625 0  0 0.1875 0  0.03125 0.1875 0  0.0625 0.1875 0  0.09375 0.1875 0  0.125 0.1875 0  0.15625 0.1875 0  0.1875 0.1875 0  0.21875 0.1875 0  0.25 0.1875 0  0.28125 0.1875 0  0.3125 0.1875 0  0.34375 0.1875 0  0.375 0.1875 0  0.40625 0.1875 0  0.4375 0.1875 0  0.46875 0.1875 0  0.5 0.1875 0  0.53125 0.1875 0  0.5625 0.1875 0  0.59375 0.1875 0  0.625 0.1875 0  0.65625 0.1875 0  0.6875 0.1875 0  0.71875 0.1875 0  0.75 0.1875 0  0.78125 0.1875 0  0.8125 0.1875 0  0.84375 0.1875 0  0.875 0.1875 0  0.90625 0.1875 0  0.9375 0.1875 0  0.96875 0.1875 0  1 0.1875 0  0 0.21875 0  0.03125 0.21875 0  0.0625 0.21875 0  0.09375 0.21875 0  0.125 0.21875 0  0.15625 0.21875 0  0.1875 0.21875 0  0.21875 0.21875 0  0.25 0.21875 0  0.28125 0.21875 0  0.3125 0.21875 0  0.34375 0.21875 0  0.375 0.21875 0  0.40625 0.21875 0  0.4375 0.21875 0  0.46875 0.21875 0  0.5 0.21875 0  0.53125 0.21875 0  0.5625 0.21875 0  0.59375 0.21875 0  0.625 0.21875 0  0.65625 0.21875 0  0.6875 0.21875 0  0.71875 0.21875 0  0.75 0.21875 0  0.78125 0.21875 0  0.8125 0.21875 0  0.84375 0.21875 0  0.875 0.21875 0  0.90625 0.21875 0  0.9375 0.21875 0  0.96875 0.21875 0  1 0.21875 0  0 0.25 0  0.03125 0.25 0  0.0625 0.25 0  0.09375 0.25 0  0.125 0.25 0  0.15625 0.25 0  0.1875 0.25 0  0.21875 0.25 0  0.25 0.25 0  0.28125 0.25 0  0.3125 0.25 0  0.34375 0.25 0  0.375 0.25 0  0.40625 0.25 0  0.4375 0.25 0  0.46875 0.25 0  0.5 0.25 0  0.53125 0.25 0  0.5625 0.25 0  0.59375 0.25 0  0.625 0.25 0  0.65625 0.25 0  0.6875 0.25 0  0.71875 0.25 0  0.75 0.25 0  0.78125 0.25 0  0.8125 0.25 0  0.84375 0.25 0  0.875 0.25 0  0.90625 0.25 0  0.9375 0.25 0  0.96875 0.25 0  1 0.25 0  0 0.28125 0  0.03125 0.28125 0  0.0625 0.28125 0  0.09375 0.28125 0  0.125 0.28125 0  0.15625 0.28125 0  0.1875 0.28125 0  0.21875 0.28125 0  0.25 0.28125 0  0.28125 0.28125 0  0.3125 0.28125 0  0.34375 0.28125 0  0.375 0.28125 0  0.40625 0.28125 0  0.4375 0.28125 0  0.46875 0.28125 0  0.5 0.28125 0  0.53125 0.28125 0  0.5625 0.28125 0  0.59375 0.28125 0  0.625 0.28125 0  0.65625 0.28125 0  0.6875 0.28125 0  0.71875 0.28125 0  0.75 0.28125 0  0.78125 0.28125 0  0.8125 0.28125 0  0.84375 0.28125 0  0.875 0.28125 0  0.90625 0.28125 0  0.9375 0.28125 0  0.96875 0.28125 0  1 0.28125 0  0 0.3125 0  0.03125 0.3125 0  0.0625 0.3125 0  0.09375 0.3125 0  0.125 0.3125 0  0.15625 0.3125 0  0.1875 0.3125 0  0.21875 0.3125 0  0.25 0.3125 0  0.28125 0.3125 0  0.3125 0.3125 0  0.34375 0.3125 0  0.375 0.3125 0  0.40625 0.3125 0  0.4375 0.3125 0  0.46875 0.3125 0  0.5 0.3125 0  0.53125 0.3125 0  0.5625 0.3125 0  0.59375 0.3125 0  0.625 0.3125 0  0.65625 0.3125 0  0.6875 0.3125 0  0.71875 0.3125 0  0.75 0.3125 0  0.78125 0.3125 0  0.8125 0.3125 0  0.84375 0.3125 0  0.875 0.3125 0  0.90625 0.3125 0  0.9375 0.3125 0  0.96875 0.3125 0  1 0.3125 0  0 0.34375 0  0.03125 0.34375 0  0.0625 0.34375 0  0.09375 0.34375 0  0.125 0.34375 0  0.15625 0.34375 0  0.1875 0.34375 0  0.21875 0.34375 0  0.25 0.34375 0  0.28125 0.34375 0  0.3125 0.34375 0  0.34375 0.34375 0  0.375 0.34375 0  0.40625 0.34375 0  0.4375 0.34375 0  0.46875 0.34375 0  0.5 0.34375 0  0.53125 0.34375 0  0.5625 0.34375 0  0.59375 0.34375 0  0.625 0.34375 0  0.65625 0.34375 0  0.6875 0.34375 0  0.71875 0.34375 0  0.75 0.34375 0  0.78125 0.34375 0  0.8125 0.34375 0  0.84375 0.34375 0  0.875 0.34375 0  0.90625 0.34375 0  0.9375 0.34375 0  0.96875 0.34375 0  1 0.34375 0  0 0.375 0  0.03125 0.375 0  0.0625 0.375 0  0.09375 0.375 0  0.125 0.375 0  0.15625 0.375 0  0.1875 0.375 0  0.21875 0.375 0  0.25 0.375 0  0.28125 0.375 0  0.3125 0.375 0  0.34375 0.375 0  0.375 0.375 0  0.40625 0.375 0  0.4375 0.375 0  0.46875 0.375 0  0.5 0.375 0  0.53125 0.375 0  0.5625 0.375 0  0.59375 0.375 0  0.625 0.375 0  0.65625 0.375 0  0.6875 0.375 0  0.71875 0.375 0  0.75 0.375 0  0.78125 0.375 0  0.8125 0.375 0  0.84375 0.375 0  0.875 0.375 0  0.90625 0.375 0  0.9375 0.375 0  0.96875 0.375 0  1 0.375 0  0 0.40625 0  0.03125 0.40625 0  0.0625 0.40625 0  0.09375 0.40625 0  0.125 0.40625 0  0.15625 0.40625 0  0.1875 0.40625 0  0.21875 0.40625 0  0.25 0.40625 0  0.28125 0.40625 0  0.3125 0.40625 0  0.34375 0.40625 0  0.375 0.40625 0  0.40625 0.40625 0  0.4375 0.40625 0  0.46875 0.40625 0  0.5 0.40625 0  0.53125 0.40625 0  0.5625 0.40625 0  0.59375 0.40625 0  0.625 0.40625 0  0.65625 0.40625 0  0.6875 0.40625 0  0.71875 0.40625 0  0.75 0.40625 0  0.78125 0.40625 0  0.8125 0.40625 0  0.84375 0.40625 0  0.875 0.40625 0  0.90625 0.40625 0  0.9375 0.40625 0  0.96875 0.40625 0  1 0.40625 0  0 0.4375 0  0.03125 0.4375 0  0.0625 0.4375 0  0.09375 0.4375 0  0.125 0.4375 0  0.15625 0.4375 0  0.1875 0.4375 0  0.21875 0.4375 0  0.25 0.4375 0  0.28125 0.4375 0  0.3125 0.4375 0  0.34375 0.4375 0  0.375 0.4375 0  0.40625 0.4375 0  0.4375 0.4375 0  0.46875 0.4375 0  0.5 0.4375 0  0.53125 0.4375 0  0.5625 0.4375 0  0.59375 0.4375 0  0.625 0.4375 0  0.65625 0.4375 0  0.6875 0.4375 0  0.71875 0.4375 0  0.75 0.4375 0  0.78125 0.4375 0  0.8125 0.4375 0  0.84375 0.4375 0  0.875 0.4375 0  0.90625 0.4375 0  0.9375 0.4375 0  0.96875 0.4375 0  1 0.4375 0  0 0.46875 0  0.03125 0.46875 0  0.0625 0.46875 0  0.09375 0.46875 0  0.125 0.46875 0  0.15625 0.46875 0  0.1875 0.46875 0  0.21875 0.46875 0  0.25 0.46875 0  0.28125 0.46875 0  0.3125 0.46875 0  0.34375 0.46875 0  0.375 0.46875 0  0.40625 0.46875 0  0.4375 0.46875 0  0.46875 0.46875 0  0.5 0.46875 0  0.53125 0.46875 0  0.5625 0.46875 0  0.59375 0.46875 0  0.625 0.46875 0  0.65625 0.46875 0  0.6875 0.46875 0  0.71875 0.46875 0  0.75 0.46875 0  0.78125 0.46875 0  0.8125 0.46875 0  0.84375 0.46875 0  0.875 0.46875 0  0.90625 0.46875 0  0.9375 0.46875 0  0.96875 0.46875 0  1 0.46875 0  0 0.5 0  0.03125 0.5 0  0.0625 0.5 0  0.09375 0.5 0  0.125 0.5 0  0.15625 0.5 0  0.1875 0.5 0  0.21875 0.5 0  0.25 0.5 0  0.28125 0.5 0  0.3125 0.5 0  0.34375 0.5 0  0.375 0.5 0  0.40625 0.5 0  0.4375 0.5 0  0.46875 0.5 0  0.5 0.5 0  0.53125 0.5 0  0.5625 0.5 0  0.59375 0.5 0  0.625 0.5 0  0.65625 0.5 0  0.6875 0.5 0  0.71875 0.5 0  0.75 0.5 0  0.78125 0.5 0  0.8125 0.5 0  0.84375 0.5 0  0.875 0.5 0  0.90625 0.5 0  0.9375 0.5 0  0.96875 0.5 0  1 0.5 0  0 0.53125 0  0.03125 0.53125 0  0.0625 0.53125 0  0.09375 0.53125 0  0.125 0.53125 0  0.15625 0.53125 0  0.1875 0.53125 0  0.21875 0.53125 0  0.25 0.53125 0  0.28125 0.53125 0  0.3125 0.53125 0  0.34375 0.53125 0  0.375 0.53125 0  0.40625 0.53125 0  0.4375 0.53125 0  0.46875 0.53125 0  0.5 0.53125 0  0.53125 0.53125 0  0.5625 0.53125 0  0.59375 0.53125 0  0.625 0.53125 0  0.65625 0.53125 0  0.6875 0.53125 0  0.71875 0.53125 0  0.75 0.53125 0  0.78125 0.531
[...]
<PointData  Vectors="f_928"> 
<DataArray  type="Float64"  Name="f_928"  NumberOfComponents="3" format="ascii">0.0000000000000000e+00 0.0000000000000000e+00 0.0000000000000000e+00  6.9388939039072284e-18 0.0000000000000000e+00 0.0000000000000000e+00  0.0000000000000000e+00 0.0000000000000000e+00 0.0000000000000000e+00  0.0000000000000000e+00 0.0000000000000000e+00 0.0000000000000000e+00  5.5511151231257827e-17 0.0000000000000000e+00 0.0000000000000000e+00  2.7755575615628914e-17 0.0000000000000000e+00 0.0000000000000000e+00  2.7755575615628914e-17 0.0000000000000000e+00 0.0000000000000000e+00  0.0000000000000000e+00 0.0000000000000000e+00 0.0000000000000000e+00  0.0000000000000000e+00 0.0000000000000000e+00 0.0000000000000000e+00  -5.5511151231257827e-17 0.0000000000000000e+00 0.0000000000000000e+00  5.5511151231257827e-17 0.0000000000000000e+00 0.0000000000000000e+00  1.1102230246251565e-16 0.0000000000000000e+00 0.0000000000000000e+00  0.0000000000000000e+00 0.0000000000000000e+00 0.0000000000000000e+00  0.0000000000000000e+00 0.0000000000000000e+00 0.0000000000000000e+00  0.0000000000000000e+00 0.0000000000000000e+00 0.0000000000000000e+00  -1.1102230246251565e-16 0.0000000000000000e+00 0.0000000000000000e+00  0.0000000000000000e+00 0.0000000000000000e+00 0.0000000000000000e+00  1.1102230246251565e-16 0.0000000000000000e+00 0.0000000000000000e+00  1.1102230246251565e-16 0.0000000000000000e+00 0.0000000000000000e+00  2.2204460492503131e-16 0.0000000000000000e+00 0.0000000000000000e+00  2.2204460492503131e-16 0.0000000000000000e+00 0.0000000000000000e+00  -2.2204460492503131e-16 0.0000000000000000e+00 0.0000000000000000e+00  2.2204460492503131e-16 0.0000000000000000e+00 0.0000000000000000e+00  0.0000000000000000e+00 0.0000000000000000e+00 0.0000000000000000e+00  2.2204460492503131e-16 0.0000000000000000e+00 0.0000000000000000e+00  0.0000000000000000e+00 0.0000000000000000e+00 0.0000000000000000e+00  -2.2204460492503131e-16 0.0000000000000000e+00 0.0000000000000000e+00  0.0000000000000000e+00 0.0000000000000000e+00 0.0000000000000000e+00  0.0000000000000000e+00 0.0000000000000000e+00 0.0000000000000000e+00  0.0000000000000000e+00 0.0000000000000000e+00 0.0000000000000000e+00  -4.4408920985006262e-16 0.0000000000000000e+00 0.0000000000000000e+00  4.4408920985006262e-16 0.0000000000000000e+00 0.0000000000000000e+00  0.0000000000000000e+00 0.0000000000000000e+00 0.0000000000000000e+00  0.0000000000000000e+00 -6.9388939039072284e-18 0.0000000000000000e+00  1.1110475179247604e-02 -9.3698089814142141e-03 0.0000000000000000e+00  1.6932779835427264e-02 -8.8632069308715034e-03 0.0000000000000000e+00  2.0449201890594043e-02 -4.7943615536467921e-03 0.0000000000000000e+00  2.2263718848476471e-02 5.2933607047399300e-04 0.0000000000000000e+00  2.2738206637555519e-02 5.9728806320751837e-03 0.0000000000000000e+00  2.2128527020151223e-02 1.0910045838453959e-02 0.0000000000000000e+00  2.0537841943368995e-02 1.5097501948211994e-02 0.0000000000000000e+00  1.8142105676399456e-02 1.8339532708632263e-02 0.0000000000000000e+00  1.5157251284674156e-02 2.0435172373407404e-02 0.0000000000000000e+00  1.1849579004082900e-02 2.1287629462673700e-02 0.0000000000000000e+00  8.3804855567383152e-03 2.1006565328710293e-02 0.0000000000000000e+00  4.7528593064367630e-03 1.9756630752695951e-02 0.0000000000000000e+00  1.0564245754762780e-03 1.7569965985301160e-02 0.0000000000000000e+00  -2.3389696904532187e-03 1.4548624810101114e-02 0.0000000000000000e+00  -5.3848052909879485e-03 1.1064330233173492e-02 0.0000000000000000e+00  -8.3854446623042866e-03 7.3975140628074337e-03 0.0000000000000000e+00  -1.1127120142265357e-02 3.6652517976193816e-03 0.0000000000000000e+00  -1.3443014297648714e-02 1.3865018234872351e-04 0.0000000000000000e+00  -1.5570569768810882e-02 -2.9094563571773896e-03 0.0000000000000000e+00  -1.7644392392864860e-02 -5.3082786404204801e-03 0.0000000000000000e+00  -1.9693682851043892e-02 -7.0701833999459451e-03 0.0000000000000000e+00  -2.1833637318985577e-02 -8.2354399227372449e-03 0.0000000000000000e+00  -2.4264317040009864e-02 -8.9536511571783745e-03 0.0000000000000000e+00  -2.7461306745515168e-02 -9.6171469479302829e-03 0.0000000000000000e+00  -3.2102497955200926e-02 -1.0891499821267248e-02 0.0000000000000000e+00  -3.8565516874851768e-02 -1.3193663443590270e-02 0.0000000000000000e+00  -5.0882803394037168e-02 -1.7698187970476315e-02 0.0000000000000000e+00  -6.6371727486212784e-02 -2.3813441244166095e-02 0.0000000000000000e+00  -1.1143491103058523e-01 -3.7445345738044089e-02 0.0000000000000000e+00  -1.2772223987589681e-01 -4.0503010363502623e-02 0.0000000000000000e+00  -3.5138679184278887e-01 -7.6752632529647091e-02 0.0000000000000000e+00  0.0000000000000000e+00 0.0000000000000000e+00 0.0000000000000000e+00  0.0000000000000000e+00 0.0000000000000000e+00 0.0000000000000000e+00  1.9929168009452325e-02 -9.3611489738699427e-03 0.0000000000000000e+00  3.1619679377442617e-02 -8.7094404668154879e-03 0.0000000000000000e+00  3.8322855378383994e-02 -2.3419865186551092e-03 0.0000000000000000e+00  4.1412203782856510e-02 6.6486580108684745e-03 0.0000000000000000e+00  4.1639029916702153e-02 1.6338138105371741e-02 0.0000000000000000e+00  3.9650130069279366e-02 2.5485504662829894e-02 0.0000000000000000e+00  3.5874217161233346e-02 3.3382619369558997e-02 0.0000000000000000e+00  3.0595374973107992e-02 3.9686050378378121e-02 0.0000000000000000e+00  2.4135221462022072e-02 4.4151784594893884e-02 0.0000000000000000e+00  1.6964959156108628e-02 4.6555189434286423e-02 0.0000000000000000e+00  9.6101231782230734e-03 4.6864389666055675e-02 0.0000000000000000e+00  2.1791869838796440e-03 4.5396264637897005e-02 0.0000000000000000e+00  -5.3359830774309946e-03 4.2420109738768322e-02 0.0000000000000000e+00  -1.2350225265056247e-02 3.8044632198906095e-02 0.0000000000000000e+00  -1.8460472516420356e-02 3.2604494344223273e-02 0.0000000000000000e+00  -2.4135033293965380e-02 2.6729303721772318e-02 0.0000000000000000e+00  -2.9231961461306133e-02 2.0831183895760552e-02 0.0000000000000000e+00  -3.3474870759607755e-02 1.5260558846162259e-02 0.0000000000000000e+00  -3.7192148844817918e-02 1.0373895016560386e-02 0.0000000000000000e+00  -4.0670009368888538e-02 6.5046008931839150e-03 0.0000000000000000e+00  -4.4227960535827116e-02 3.8079661970891188e-03 0.0000000000000000e+00  -4.8139585272093166e-02 2.1811695885096682e-03 0.0000000000000000e+00  -5.2916515349732851e-02 1.4972615770417474e-03 0.0000000000000000e+00  -5.9610359467374030e-02 1.3657815105466986e-03 0.0000000000000000e+00  -6.9241865285327275e-02 1.2526222339848125e-03 0.0000000000000000e+00  -8.2284280614849825e-02 1.1179902320302415e-03 0.0000000000000000e+00  -1.0404292625796963e-01 1.2639243744148043e-03 0.0000000000000000e+00  -1.2975010836312340e-01 2.4854846702789257e-03 0.0000000000000000e+00  -1.9064508165806693e-01 7.2928489184592715e-03 0.0000000000000000e+00  -1.9664630563501451e-01 1.8895588185036616e-02 0.0000000000000000e+00  -3.7307017335747572e-01 4.6755848683938339e-02 0.0000000000000000e+00  0.0000000000000000e+00 0.0000000000000000e+00 0.0000000000000000e+00  0.0000000000000000e+00 0.0000000000000000e+00 0.0000000000000000e+00  2.6635144882616493e-02 -6.0945093673824419e-03 0.0000000000000000e+00  4.3469408123754300e-02 -2.9831026170556718e-03 0.0000000000000000e+00  5.3082383652255094e-02 6.1560094514836461e-03 0.0000000000000000e+00  5.7187337160871904e-02 1.8457047674533794e-02 0.0000000000000000e+00  5.6909800809379407e-02 3.1838097592554404e-02 0.0000000000000000e+00  5.3176573846214825e-02 4.4830004600625722e-02 0.0000000000000000e+00  4.6734635364098220e-02 5.6353321258717684e-02 0.0000000000000000e+00  3.8225859280738628e-02 6.5720924875796519e-02 0.0000000000000000e+00  2.8083970304597305e-02 7.2698390045576655e-02 0.0000000000000000e+00  1.6799615812598478e-02 7.7122816963673874e-02 0.0000000000000000e+00  5.2038363946601551e-03 7.8831792119951283e-02 0.0000000000000000e+00  -6.1834194389179808e-03 7.7988550002811352e-02 0.0000000000000000e+00  -1.7425836958914531e-02 7.5092772737898356e-02 0.0000000000000000e+00  -2.8037667786014131e-02 7.0510553582081664e-02 0.0000000000000000e+00  -3.7286016601769667e-02 6.4497633240689523e-02 0.0000000000000000e+00  -4.5358047512706556e-02 5.7618421182953627e-02 0.0000000000000000e+00  -5.2325756465017914e-02 5.0655717660269467e-02 0.0000000000000000e+00  -5.7985177649096942e-02 4.4161531616991517e-02 0.0000000000000000e+00  -6.2757970794260709e-02 3.8528886185935918e-02 0.0000000000000000e+00  -6.6924963122194647e-02 3.4079288088765536e-02 0.0000000000000000e+00  -7.1212403975847938e-02 3.1176054836265399e-02 0.0000000000000000e+00  -7.6134606646999670e-02 2.9744093209285671e-02 0.0000000000000000e+00  -8.2325585299990678e-02 2.9800751848372331e-02 0.0000000000000000e+00  -9.1386041572192100e-02 3.1248976304765808e-02 0.0000000000000000e+00  -1.0419359248479965e-01 3.3865916167878707e-02 0.0000000000000000e+00  -1.2046131635330504e-01 3.8214637157988673e-02 0.0000000000000000e+00  -1.4518488325460455e-01 4.5313515870567533e-02 0.0000000000000000e+00  -1.7026064958146137e-01 5.6702442475283221e-02 0.0000000000000000e+00  -2.2744394135674373e-01 7.2969866582449472e-02 0.0000000000000000e+00  -2.0266059526493541e-01 9.2229761108559849e-02 0.0000000000000000e+00  -3.7880443219383064e-01 9.2673907842115211e-02 0.0000000000000000e+00  0.0000000000000000e+00 -1.1102230246251565e-16 0.0000000000000000e+00  0.0000000000000000e+00 -5.5511151231257827e-17 0.0000000000000000e+00  3.1958387430774518e-02 -8.9824241155328499e-04 0.0000000000000000e+00  5.2959980800380946e-02 6.4367667127639416e-03 0.0000000000000000e+00  6.4987440341458147e-02 1.9427379696533825e-02 0.0000000000000000e+00  6.9781884747387252e-02 3.5536418624843580e-02 0.0000000000000000e+00  6.8809569562996997e-02 5.2689713865735816e-02 0.0000000000000000e+00  6.3243965516000089e-02 6.9405113723457451e-02 0.0000000000000000e+00  5.3944231172744661e-02 8.4556620257358994e-02 0.0000000000000000e+00  4.1866331638395982e-02 9.7227928539470071e-02 0.0000000000000000e+00  2.7894107508222798e-02 1.0694525314855971e-01 0.0000000000000000e+00  1.2521808901397979e-02 1.1367232678673939e-01 0.0000000000000000e+00  -3.4032925565339323e-03 1.1733531292936100e-01 0.0000000000000000e+00  -1.8965318796373087e-02 1.1792756057069242e-01 0.0000000000000000e+00  -3.3866172079784373e-02 1.1582983828306914e-01 0.0000000000000000e+00  -4.7747846773650182e-02 1.1170993670112092e-01 0.0000000000000000e+00  -5.9952262270209888e-02 1.0605484900019196e-01 0.0000000000000000e+00  -7.0325104662059879e-02 9.9257714409481168e-02 0.0000000000000000e+00  -7.8680846939950033e-02 9.2034642161780478e-02 0.0000000000000000e+00  -8.5062310317070899e-02 8.5310478946702795e-02 0.0000000000000000e+00  -9.0194008732019437e-02 7.9634103907907205e-02 0.0000000000000000e+00  -9.4344617279767284e-02 7.5255946088821635e-02 0.0000000000000000e+00  -9.8396651633789078e-02 7.2510796601778282e-02 0.0000000000000000e+00  -1.0328292679845985e-01 7.1525435312027541e-02 0.0000000000000000e+00  -1.0956255167246076e-01 7.2343630281920923e-02 0.0000000000000000e+00  -1.1917096883819278e-01 7.5112525250167650e-02 0.0000000000000000e+00  -1.3279415672621608e-01 7.9898974987429816e-02 0.0000000000000000e+00  -1.4906874677454640e-01 8.7221420935897243e-02 0.0000000000000000e+00  -1.7249270496883939e-01 9.7772192260403790e-02 0.0000000000000000e+00  -1.9216360667369470e-01 1.1181325209355686e-01 0.0000000000000000e+00  -2.4446339382018145e-01 1.2651837458250581e-01 0.0000000000000000e+00  -2.0190248924090204e-01 1.3303562763856902e-01 0.0000000000000000e+00  -4.1761199615887845e-01 1.0434342042846934e-01 0.0000000000000000e+00  0.0000000000000000e+00 0.0000000000000000e+00 0.0000000000000000e+00  0.0000000000000000e+00 -2.7755575615628914e-17 0.0000000000000000e+00  3.6294061003685825e-02 5.8155413537805678e-03 0.0000000000000000e+00  6.0584584454893675e-02 1.8806896979633447e-02 0.0000000000000000e+00  7.4525108310623117e-02 3.6691076488951868e-02 0.0000000000000000e+00  7.9685483810010727e-02 5.7301829327105092e-02 0.0000000000000000e+00  7.7764323327081830e-02 7.8663507537423960e-02 0.0000000000000000e+00  7.0243090855168056e-02 9.9288438466362233e-02 0.0000000000000000e+00  5.8092101691496090e-02 1.1808385371735994e-01 0.0000000000000000e+00  4.2389917180956693e-02 1.3417810191858329e-01 0.0000000000000000e+00  2.4440637157121525e-02 1.4697983087408251e-01 0.0000000000000000e+00  5.0209114599626403e-03 1.5631644388671503e-01 0.0000000000000000e+00  -1.5075404096592138e-02 1.6220211541783291e-01 0.0000000000000000e+00  -3.4772124511378788e-02 1.6470661210726753e-01 0.0000000000000000e+00  -5.3359380310049276e-02 1.6411399865829818e-01 0.0000000000000000e+00  -7.0253813242623808e-02 1.6101832570973443e-01 0.0000000000000000e+00  -8.4942315456007944e-02 1.5612085416601296e-01 0.0000000000000000e+00  -9.7295401850943763e-02 1.5000384503371283e-01 0.0000000000000000e+00  -1.0673347063765792e-01 1.4324695718561370e-01 0.0000000000000000e+00  -1.1318929182201720e-01 1.3670960933417209e-01 0.0000000000000000e+00  -1.1783981697487667e-01 1.3113122913484321e-01 0.0000000000000000e+00  -1.2115031821130517e-01 1.2688506891205070e-01 0.0000000000000000e+00  -1.2407603331948036e-01 1.2420215172956339e-01 0.0000000000000000e+00  -1.2780170018048853e-01 1.2318281466194358e-01 0.0000000000000000e+00  -1.3298250504345233e-01 1.2390626144428363e-01 0.0000000000000000e+00  -1.4167114035290451e-01 1.2643632906163660e-01 0.0000000000000000e+00  -1.5454138969623843e-01 1.3082001432324020e-01 0.0000000000000000e+00  -1.6962522151922110e-01 1.3709547451468607e-01 0.0000000000000000e+00  -1.9137329405901671e-01 1.4498924717305406e-01 0.0000000000000000e+00  -2.0769588783838921e-01 1.5333991801119362e-01 0.0000000000000000e+00  -2.6215491979550665e-01 1.5726846642737979e-01 0.0000000000000000e+00  -2.1560519555948376e-01 1.4740952905449745e-01 0.0000000000000000e+00  -4.8723054734219318e-01 1.0126765269816407e-01 0.0000000000000000e+00  -4.4408920985006262e-16 1.1102230246251565e-16 0.0000000000000000e+00  0.0000000000000000e+00 -2.7755575615628914e-17 0.0000000000000000e+00  3.9924739794447495e-02 1.3809556987074173e-02 0.0000000000000000e+00  6.6770995269470182e-02 3.3638634182563437e-02 0.0000000000000000e+00  8.2085995867582778e-02 5.7368429900599344e-02 0.0000000000000000e+00  8.7351152259938419e-02 8.3120053040272229e-02 0.0000000000000000e+00  8.4282517180895467e-02 1.0917314877330553e-01 0.0000000000000000e+00  7.4667511364729600e-02 1.3405739203977751e-01 0.0000000000000000e+00  5.9647303422956710e-02 1.5672475137340316e-01 0.0000000000000000e+00  4.0425523899086213e-02 1.7636407124026310e-01 0.0000000000000000e+00  1.8567652283601799e-02 1.9241535876307722e-01 0.0000000000000000e+00  -4.8757183639978052e-03 2.0461999121598104e-01 0.0000000000000000e+00  -2.8994566982551429e-02 2.1295734248934162e-01 0.0000000000000000e+00  -5.2570002105945646e-02 2.1756825607336100e-01 0.0000000000000000e+00  -7.4642124597163018e-02 2.1877547038068917e-01 0.0000000000000000e+00  -9.4380632313089241e-02 2.1711361067866286e-01 0.0000000000000000e+00  -1.1118129813151845e-01 2.1327635556673802e-01 0.0000000000000000e+00  -1.2495090536728015e-01 2.0796628514472248e-01 0.0000000000000000e+00  -1.3498916661802829e-01 2.0185494709332769e-01 0.0000000000000000e+00  -1.4106644154371994e-01 1.9568223153641584e-01 0.0000000000000000e+00  -1.4457811077535121e-01 1.9010060077715502e-01 0.0000000000000000e+00  -1.4622753800988297e-01 1.8551420043651323e-01 0.0000000000000000e+00  -1.4722416366582602e-01 1.8212992698867481e-01 0.0000000000000000e+00  -1.4894976637576129e-01 1.7991629135457510e-01 0.0000000000000000e+00  -1.5222972788675659e-01 1.7883238004583091e-01 0.0000000000000000e+00  -1.5939185548489165e-01 1.7868392574820113e-01 0.0000000000000000e+00  -1.7130739458894872e-01 1.7917822255756921e-01 0.0000000000000000e+00  -1.8606483689416375e-01 1.7979845636585001e-01 0.0000000000000000e+00  -2.0860649256349095e-01 1.7948458669882039e-01 0.0000000000000000e+00  -2.2633258152797930e-01 1.7653458829512603e-01 0.0000000000000000e+00  -2.9012968097288860e-01 1.6647967441961253e-01 0.0000000000000000e+00  -2.4748891782391658e-01 1.4293017357805204e-01 0.0000000000000000e+00  -5.8163083251254077e-01 8.8635558551936278e-02 0.0000000000000000e+00  8.8817841970012523e-16 0.0000000000000000e+00 0.0000000000000000e+00  0.0000000000000000e+00 0.0000000000000000e+00 0.0000000000000000e+00  4.2984477985814208e-02 2.2915428741541344e-02 0.0000000000000000e+00  7.1831606968786724e-02 5.0530206251284571e-02 0.0000000000000000e+00  8.8059408153067481e-02 8.0961284510725817e-02 0.0000000000000000e+00  9.3166487792697150e-02 1.1254625859003153e-01 0.0000000000000000e+00  8.8830426328815770e-02 1.4378245446878965e-01 0.0000000000000000e+00  7.7023227365720315e-02 1.7331375903024887e-01 0.0000000000000000e+00  5.9151656011173726e-02 2.0014847003452527e-01 0.0000000000000000e+00  3.6522464326209758e-02 2.2356392516492093e-01 0.0000000000000000e+00  1.0896271124217871e-02 2.4301729414713283e-01 0.0000000000000000e+00  -1.6438506187780533e-02 2.5822173480264216e-01 0.0000000000000000e+00  -4.4365861437753340e-02 2.6916519153556662e-01 0.0000000000000000e+00  -7.1544855090665327e-02 2.7604651216008830e-01 0.0000000000000000e+00  -9.6821729100229792e-02 2.7915021311723398e-01 0.0000000000000000e+00  -1.1911013488198008e-01 2.7897869043540807e-01 0.0000000000000000e+00  -1.3764959788251896e-01 2.7625393093421957e-01 0.0000000000000000e+00  -1.5238572058201161e-01 2.7171390285130226e-01 0.0000000000000000e+00  -1.6250877143731857e-01 2.6597742635335997e-01 0.0000000000000000e+00  -1.6770862343408344e-01 2.5975910028865329e-01 0.0000000000000000e+00  -1.6956500578394573e-01 2.5363184149546425e-01 0.0000000000000000e+00  -1.6902336254842609e-01 2.4789124511273308e-01 0.0000000000000000e+00  -1.6758016173985602e-01 2.4255702922245204e-01 0.0000000000000000e+00  -1.6688028166618274e-01 2.3741352746336719e-01 0.0000000000000000e+00  -1.6801961971989776e-01 2.3219555349978260e-01 0.0000000000000000e+00  -1.7387832535221026e-01 2.2646464178214731e-01 0.0000000000000000e+00  -1.8578288865896520e-01 2.1955375068289884e-01 0.0000000000000000e+00  -2.0225621872655219e-01 2.1061201403988417e-01 0.0000000000000000e+00  -2.2906722189085071e-01 1.9846019294640671e-01 0.0000000000000000e+00  -2.5303655748452858e-01 1.8176571681935338e-01 0.0000000000000000e+00  -3.3131851287107317e-01 1.5782277205520767e-01 0.0000000000000000e+00  -2.9639198731710570e-01 1.2428886444958342e-01 0.0000000000000000e+00  -6.9613104586092511e-01 6.8910011681305505e-02 0.0000000000000000e+00  0.0000000000000000e+00 2.2204460492503131e-16 0.0000000000000000e+00  0.0000000000000000e+00 0.0000000000000000e+00 0.0000000000000000e+00  4.5579170709325427e-02 3.3019202930309688e-02 0.0000000000000000e+00  7.6003018257422311e-02 6.9253088607978075e-02 0.0000000000000000e+00  9.2822833055286380e-02 1.0709754401334454e-01 0.0000000000000000e+00  9.7555888487787457e-02 1.4512358582409796e-01 0.0000000000000000e+00  9.1848085382490674e-02 1.8202879587373910e-01 0.0000000000000000e+00  7.7815207014593768e-02 2.1659322697076622e-01 0.0000000000000000e+00  5.7134397254793412e-02 2.4790223062081895e-01 0.0000000000000000e+00  3.1239159491285751e-02 2.7529862982389608e-01 0.0000000000000000e+00  2.0222521970212348e-03 2.9830322095562484e-01 0.0000000000000000e+00  -2.9007094113060905e-02 3.1664132716580684e-01 0.0000000000000000e+00  -6.0485408822967046e-02 3.3029367853599667e-01 0.0000000000000000e+00  -9.0939630072833344e-02 3.3945986692073021e-01 0.0000000000000000e+00  -1.1911952914999102e-01 3.4443724705423295e-01 0.0000000000000000e+00  -1.4365407998827595e-01 3.4568349177730834e-01 0.0000000000000000e+00  -1.6357322416485665e-01 3.4388489558976870e-01 0.0000000000000000e+00  -1.7886552429910663e-01 3.3975239913467148e-01 0.0000000000000000e+00  -1.8869748054026991e-01 3.33882278458