<?xml version="1.0"?>
<VTKFile type="UnstructuredGrid"  version="0.1"  >
<UnstructuredGrid>
<Piece  NumberOfPoints="1089" NumberOfCells="2048">
<Points>
<DataArray  type="Float64"  NumberOfComponents="3"  format="ascii">0 0 0  0.03125 0 0  0.0625 0 0  0.09375 0 0  0.125 0 0  0.15625 0 0  0.1875 0 0  0.21875 0 0  0.25 0 0  0.28125 0 0  0.3125 0 0  0.34375 0 0  0.375 0 0  0.40625 0 0  0.4375 0 0  0.46875 0 0  0.5 0 0  0.53125 0 0  0.5625 0 0  0.59375 0 0  0.625 0 0  0.65625 0 0  0.6875 0 0  0.71875 0 0  0.75 0 0  0.78125 0 0  0.8125 0 0  0.84375 0 0  0.875 0 0  0.90625 0 0  0.9375 0 0  0.96875 0 0  1 0 0  0 0.03125 0  0.03125 0.03125 0  0.0625 0.03125 0  0.09375 0.03125 0  0.125 0.03125 0  0.15625 0.03125 0  0.1875 0.03125 0  0.21875 0.03125 0  0.25 0.03125 0  0.28125 0.03125 0  0.3125 0.03125 0  0.34375 0.03125 0  0.375 0.03125 0  0.40625 0.03125 0  0.4375 0.03125 0  0.46875 0.03125 0  0.5 0.03125 0  0.53125 0.03125 0  0.5625 0.03125 0  0.59375 0.03125 0  0.625 0.03125 0  0.65625 0.03125 0  0.6875 0.03125 0  0.71875 0.03125 0  0.75 0.03125 0  0.78125 0.03125 0  0.8125 0.03125 0  0.84375 0.03125 0  0.875 0.03125 0  0.90625 0.03125 0  0.9375 0.03125 0  0.96875 0.03125 0  1 0.03125 0  0 0.0625 0  0.03125 0.0625 0  0.0625 0.0625 0  0.09375 0.0625 0  0.125 0.0625 0  0.15625 0.0625 0  0.1875 0.0625 0  0.21875 0.0625 0  0.25 0.0625 0  0.28125 0.0625 0  0.3125 0.0625 0  0.34375 0.0625 0  0.375 0.0625 0  0.40625 0.0625 0  0.4375 0.0625 0  0.46875 0.0625 0  0.5 0.0625 0  0.53125 0.0625 0  0.5625 0.0625 0  0.59375 0.0625 0  0.625 0.0625 0  0.65625 0.0625 0  0.6875 0.0625 0  0.71875 0.0625 0  0.75 0.0625 0  0.78125 0.0625 0  0.8125 0.0625 0  0.84375 0.0625 0  0.875 0.0625 0  0.90625 0.0625 0  0.9375 0.0625 0  0.96875 0.0625 0  1 0.0625 0  0 0.09375 0  0.03125 0.09375 0  0.0625 0.09375 0  0.09375 0.09375 0  0.125 0.09375 0  0.15625 0.09375 0  0.1875 0.09375 0  0.21875 0.09375 0  0.25 0.09375 0  0.28125 0.09375 0  0.3125 0.09375 0  0.34375 0.09375 0  0.375 0.09375 0  0.40625 0.09375 0  0.4375 0.09375 0  0.46875 0.09375 0  0.5 0.09375 0  0.53125 0.09375 0  0.5625 0.09375 0  0.59375 0.09375 0  0.625 0.09375 0  0.65625 0.09375 0  0.6875 0.09375 0  0.71875 0.09375 0  0.75 0.09375 0  0.78125 0.09375 0  0.8125 0.09375 0  0.84375 0.09375 0  0.875 0.09375 0  0.90625 0.09375 0  0.9375 0.09375 0  0.96875 0.09375 0  1 0.09375 0  0 0.125 0  0.03125 0.125 0  0.0625 0.125 0  0.09375 0.125 0  0.125 0.125 0  0.15625 0.125 0  0.1875 0.125 0  0.21875 0.125 0  0.25 0.125 0  0.28125 0.125 0  0.3125 0.125 0  0.34375 0.125 0  0.375 0.125 0  0.40625 0.125 0  0.4375 0.125 0  0.46875 0.125 0  0.5 0.125 0  0.53125 0.125 0  0.5625 0.125 0  0.59375 0.125 0  0.625 0.125 0  0.65625 0.125 0  0.6875 0.125 0  0.71875 0.125 0  0.75 0.125 0  0.78125 0.125 0  0.8125 0.125 0  0.84375 0.125 0  0.875 0.125 0  0.90625 0.125 0  0.9375 0.125 0  0.96875 0.125 0  1 0.125 0  0 0.15625 0  0.03125 0.15625 0  0.0625 0.15625 0  0.09375 0.15625 0  0.125 0.15625 0  0.15625 0.15625 0  0.1875 0.15625 0  0.21875 0.15625 0  0.25 0.15625 0  0.28125 0.15625 0  0.3125 0.15625 0  0.34375 0.15625 0  0.375 0.15625 0  0.40625 0.15625 0  0.4375 0.15625 0  0.46875 0.15625 0  0.5 0.15625 0  0.53125 0.15625 0  0.5625 0.15625 0  0.59375 0.15625 0  0.625 0.15625 0  0.65625 0.15625 0  0.6875 0.15625 0  0.71875 0.15625 0  0.75 0.15625 0  0.78125 0.15625 0  0.8125 0.15625 0  0.84375 0.15625 0  0.875 0.15625 0  0.90625 0.15625 0  0.9375 0.15625 0  0.96875 0.15625 0  1 0.15625 0  0 0.1875 0  0.03125 0.1875 0  0.0625 0.1875 0  0.09375 0.1875 0  0.125 0.1875 0  0.15625 0.1875 0  0.1875 0.1875 0  0.21875 0.1875 0  0.25 0.1875 0  0.28125 0.1875 0  0.3125 0.1875 0  0.34375 0.1875 0  0.375 0.1875 0  0.40625 0.1875 0  0.4375 0.1875 0  0.46875 0.1875 0  0.5 0.1875 0  0.53125 0.1875 0  0.5625 0.1875 0  0.59375 0.1875 0  0.625 0.1875 0  0.65625 0.1875 0  0.6875 0.1875 0  0.71875 0.1875 0  0.75 0.1875 0  0.78125 0.1875 0  0.8125 0.1875 0  0.84375 0.1875 0  0.875 0.1875 0  0.90625 0.1875 0  0.9375 0.1875 0  0.96875 0.1875 0  1 0.1875 0  0 0.21875 0  0.03125 0.21875 0  0.0625 0.21875 0  0.09375 0.21875 0  0.125 0.21875 0  0.15625 0.21875 0  0.1875 0.21875 0  0.21875 0.21875 0  0.25 0.21875 0  0.28125 0.21875 0  0.3125 0.21875 0  0.34375 0.21875 0  0.375 0.21875 0  0.40625 0.21875 0  0.4375 0.21875 0  0.46875 0.21875 0  0.5 0.21875 0  0.53125 0.21875 0  0.5625 0.21875 0  0.59375 0.21875 0  0.625 0.21875 0  0.65625 0.21875 0  0.6875 0.21875 0  0.71875 0.21875 0  0.75 0.21875 0  0.78125 0.21875 0  0.8125 0.21875 0  0.84375 0.21875 0  0.875 0.21875 0  0.90625 0.21875 0  0.9375 0.21875 0  0.96875 0.21875 0  1 0.21875 0  0 0.25 0  0.03125 0.25 0  0.0625 0.25 0  0.09375 0.25 0  0.125 0.25 0  0.15625 0.25 0  0.1875 0.25 0  0.21875 0.25 0  0.25 0.25 0  0.28125 0.25 0  0.3125 0.25 0  0.34375 0.25 0  0.375 0.25 0  0.40625 0.25 0  0.4375 0.25 0  0.46875 0.25 0  0.5 0.25 0  0.53125 0.25 0  0.5625 0.25 0  0.59375 0.25 0  0.625 0.25 0  0.65625 0.25 0  0.6875 0.25 0  0.71875 0.25 0  0.75 0.25 0  0.78125 0.25 0  0.8125 0.25 0  0.84375 0.25 0  0.875 0.25 0  0.90625 0.25 0  0.9375 0.25 0  0.96875 0.25 0  1 0.25 0  0 0.28125 0  0.03125 0.28125 0  0.0625 0.28125 0  0.09375 0.28125 0  0.125 0.28125 0  0.15625 0.28125 0  0.1875 0.28125 0  0.21875 0.28125 0  0.25 0.28125 0  0.28125 0.28125 0  0.3125 0.28125 0  0.34375 0.28125 0  0.375 0.28125 0  0.40625 0.28125 0  0.4375 0.28125 0  0.46875 0.28125 0  0.5 0.28125 0  0.53125 0.28125 0  0.5625 0.28125 0  0.59375 0.28125 0  0.625 0.28125 0  0.65625 0.28125 0  0.6875 0.28125 0  0.71875 0.28125 0  0.75 0.28125 0  0.78125 0.28125 0  0.8125 0.28125 0  0.84375 0.28125 0  0.875 0.28125 0  0.90625 0.28125 0  0.9375 0.28125 0  0.96875 0.28125 0  1 0.28125 0  0 0.3125 0  0.03125 0.3125 0  0.0625 0.3125 0  0.09375 0.3125 0  0.125 0.3125 0  0.15625 0.3125 0  0.1875 0.3125 0  0.21875 0.3125 0  0.25 0.3125 0  0.28125 0.3125 0  0.3125 0.3125 0  0.34375 0.3125 0  0.375 0.3125 0  0.40625 0.3125 0  0.4375 0.3125 0  0.46875 0.3125 0  0.5 0.3125 0  0.53125 0.3125 0  0.5625 0.3125 0  0.59375 0.3125 0  0.625 0.3125 0  0.65625 0.3125 0  0.6875 0.3125 0  0.71875 0.3125 0  0.75 0.3125 0  0.78125 0.3125 0  0.8125 0.3125 0  0.84375 0.3125 0  0.875 0.3125 0  0.90625 0.3125 0  0.9375 0.3125 0  0.96875 0.3125 0  1 0.3125 0  0 0.34375 0  0.03125 0.34375 0  0.0625 0.34375 0  0.09375 0.34375 0  0.125 0.34375 0  0.15625 0.34375 0  0.1875 0.34375 0  0.21875 0.34375 0  0.25 0.34375 0  0.28125 0.34375 0  0.3125 0.34375 0  0.34375 0.34375 0  0.375 0.34375 0  0.40625 0.34375 0  0.4375 0.34375 0  0.46875 0.34375 0  0.5 0.34375 0  0.53125 0.34375 0  0.5625 0.34375 0  0.59375 0.34375 0  0.625 0.34375 0  0.65625 0.34375 0  0.6875 0.34375 0  0.71875 0.34375 0  0.75 0.34375 0  0.78125 0.34375 0  0.8125 0.34375 0  0.84375 0.34375 0  0.875 0.34375 0  0.90625 0.34375 0  0.9375 0.34375 0  0.96875 0.34375 0  1 0.34375 0  0 0.375 0  0.03125 0.375 0  0.0625 0.375 0  0.09375 0.375 0  0.125 0.375 0  0.15625 0.375 0  0.1875 0.375 0  0.21875 0.375 0  0.25 0.375 0  0.28125 0.375 0  0.3125 0.375 0  0.34375 0.375 0  0.375 0.375 0  0.40625 0.375 0  0.4375 0.375 0  0.46875 0.375 0  0.5 0.375 0  0.53125 0.375 0  0.5625 0.375 0  0.59375 0.375 0  0.625 0.375 0  0.65625 0.375 0  0.6875 0.375 0  0.71875 0.375 0  0.75 0.375 0  0.78125 0.375 0  0.8125 0.375 0  0.84375 0.375 0  0.875 0.375 0  0.90625 0.375 0  0.9375 0.375 0  0.96875 0.375 0  1 0.375 0  0 0.40625 0  0.03125 0.40625 0  0.0625 0.40625 0  0.09375 0.40625 0  0.125 0.40625 0  0.15625 0.40625 0  0.1875 0.40625 0  0.21875 0.40625 0  0.25 0.40625 0  0.28125 0.40625 0  0.3125 0.40625 0  0.34375 0.40625 0  0.375 0.40625 0  0.40625 0.40625 0  0.4375 0.40625 0  0.46875 0.40625 0  0.5 0.40625 0  0.53125 0.40625 0  0.5625 0.40625 0  0.59375 0.40625 0  0.625 0.40625 0  0.65625 0.40625 0  0.6875 0.40625 0  0.71875 0.40625 0  0.75 0.40625 0  0.78125 0.40625 0  0.8125 0.40625 0  0.84375 0.40625 0  0.875 0.40625 0  0.90625 0.40625 0  0.9375 0.40625 0  0.96875 0.40625 0  1 0.40625 0  0 0.4375 0  0.03125 0.4375 0  0.0625 0.4375 0  0.09375 0.4375 0  0.125 0.4375 0  0.15625 0.4375 0  0.1875 0.4375 0  0.21875 0.4375 0  0.25 0.4375 0  0.28125 0.4375 0  0.3125 0.4375 0  0.34375 0.4375 0  0.375 0.4375 0  0.40625 0.4375 0  0.4375 0.4375 0  0.46875 0.4375 0  0.5 0.4375 0  0.53125 0.4375 0  0.5625 0.4375 0  0.59375 0.4375 0  0.625 0.4375 0  0.65625 0.4375 0  0.6875 0.4375 0  0.71875 0.4375 0  0.75 0.4375 0  0.78125 0.4375 0  0.8125 0.4375 0  0.84375 0.4375 0  0.875 0.4375 0  0.90625 0.4375 0  0.9375 0.4375 0  0.96875 0.4375 0  1 0.4375 0  0 0.46875 0  0.03125 0.46875 0  0.0625 0.46875 0  0.09375 0.46875 0  0.125 0.46875 0  0.15625 0.46875 0  0.1875 0.46875 0  0.21875 0.46875 0  0.25 0.46875 0  0.28125 0.46875 0  0.3125 0.46875 0  0.34375 0.46875 0  0.375 0.46875 0  0.40625 0.46875 0  0.4375 0.46875 0  0.46875 0.46875 0  0.5 0.46875 0  0.53125 0.46875 0  0.5625 0.46875 0  0.59375 0.46875 0  0.625 0.46875 0  0.65625 0.46875 0  0.6875 0.46875 0  0.71875 0.46875 0  0.75 0.46875 0  0.78125 0.46875 0  0.8125 0.46875 0  0.84375 0.46875 0  0.875 0.46875 0  0.90625 0.46875 0  0.9375 0.46875 0  0.96875 0.46875 0  1 0.46875 0  0 0.5 0  0.03125 0.5 0  0.0625 0.5 0  0.09375 0.5 0  0.125 0.5 0  0.15625 0.5 0  0.1875 0.5 0  0.21875 0.5 0  0.25 0.5 0  0.28125 0.5 0  0.3125 0.5 0  0.34375 0.5 0  0.375 0.5 0  0.40625 0.5 0  0.4375 0.5 0  0.46875 0.5 0  0.5 0.5 0  0.53125 0.5 0  0.5625 0.5 0  0.59375 0.5 0  0.625 0.5 0  0.65625 0.5 0  0.6875 0.5 0  0.71875 0.5 0  0.75 0.5 0  0.78125 0.5 0  0.8125 0.5 0  0.84375 0.5 0  0.875 0.5 0  0.90625 0.5 0  0.9375 0.5 0  0.96875 0.5 0  1 0.5 0  0 0.53125 0  0.03125 0.53125 0  0.0625 0.53125 0  0.09375 0.53125 0  0.125 0.53125 0  0.15625 0.53125 0  0.1875 0.53125 0  0.21875 0.53125 0  0.25 0.53125 0  0.28125 0.53125 0  0.3125 0.53125 0  0.34375 0.53125 0  0.375 0.53125 0  0.40625 0.53125 0  0.4375 0.53125 0  0.46875 0.53125 0  0.5 0.53125 0  0.53125 0.53125 0  0.5625 0.53125 0  0.59375 0.53125 0  0.625 0.53125 0  0.65625 0.53125 0  0.6875 0.53125 0  0.71875 0.53125 0  0.75 0.53125 0  0.78125 0.531
[...]
<PointData  Vectors="f_895"> 
<DataArray  type="Float64"  Name="f_895"  NumberOfComponents="3" format="ascii">0.0000000000000000e+00 0.0000000000000000e+00 0.0000000000000000e+00  0.0000000000000000e+00 0.0000000000000000e+00 0.0000000000000000e+00  0.0000000000000000e+00 0.0000000000000000e+00 0.0000000000000000e+00  0.0000000000000000e+00 0.0000000000000000e+00 0.0000000000000000e+00  0.0000000000000000e+00 0.0000000000000000e+00 0.0000000000000000e+00  0.0000000000000000e+00 0.0000000000000000e+00 0.0000000000000000e+00  0.0000000000000000e+00 0.0000000000000000e+00 0.0000000000000000e+00  0.0000000000000000e+00 0.0000000000000000e+00 0.0000000000000000e+00  0.0000000000000000e+00 0.0000000000000000e+00 0.0000000000000000e+00  0.0000000000000000e+00 0.0000000000000000e+00 0.0000000000000000e+00  0.0000000000000000e+00 0.0000000000000000e+00 0.0000000000000000e+00  0.0000000000000000e+00 0.0000000000000000e+00 0.0000000000000000e+00  0.0000000000000000e+00 0.0000000000000000e+00 0.0000000000000000e+00  0.0000000000000000e+00 0.0000000000000000e+00 0.0000000000000000e+00  0.0000000000000000e+00 0.0000000000000000e+00 0.0000000000000000e+00  0.0000000000000000e+00 0.0000000000000000e+00 0.0000000000000000e+00  0.0000000000000000e+00 0.0000000000000000e+00 0.0000000000000000e+00  0.0000000000000000e+00 0.0000000000000000e+00 0.0000000000000000e+00  0.0000000000000000e+00 0.0000000000000000e+00 0.0000000000000000e+00  0.0000000000000000e+00 0.0000000000000000e+00 0.0000000000000000e+00  0.0000000000000000e+00 0.0000000000000000e+00 0.0000000000000000e+00  0.0000000000000000e+00 0.0000000000000000e+00 0.0000000000000000e+00  0.0000000000000000e+00 0.0000000000000000e+00 0.0000000000000000e+00  0.0000000000000000e+00 0.0000000000000000e+00 0.0000000000000000e+00  0.0000000000000000e+00 0.0000000000000000e+00 0.0000000000000000e+00  0.0000000000000000e+00 0.0000000000000000e+00 0.0000000000000000e+00  0.0000000000000000e+00 0.0000000000000000e+00 0.0000000000000000e+00  0.0000000000000000e+00 0.0000000000000000e+00 0.0000000000000000e+00  0.0000000000000000e+00 0.0000000000000000e+00 0.0000000000000000e+00  0.0000000000000000e+00 0.0000000000000000e+00 0.0000000000000000e+00  0.0000000000000000e+00 0.0000000000000000e+00 0.0000000000000000e+00  0.0000000000000000e+00 0.0000000000000000e+00 0.0000000000000000e+00  0.0000000000000000e+00 0.0000000000000000e+00 0.0000000000000000e+00  0.0000000000000000e+00 0.0000000000000000e+00 0.0000000000000000e+00  1.9095295220733499e-07 -1.3819392240266293e-07 0.0000000000000000e+00  3.4075352804696646e-07 -2.4890323134518777e-07 0.0000000000000000e+00  6.9536160857142093e-07 -3.4462929734274672e-07 0.0000000000000000e+00  1.2043322052679439e-06 -4.1894900240646571e-07 0.0000000000000000e+00  1.8366890769672128e-06 -4.7336065414627093e-07 0.0000000000000000e+00  2.5588354744254804e-06 -5.1027297547079353e-07 0.0000000000000000e+00  3.3416674979913630e-06 -5.3274887497345436e-07 0.0000000000000000e+00  4.1608577877605413e-06 -5.4327421553784783e-07 0.0000000000000000e+00  4.9958736906274837e-06 -5.4381307634104870e-07 0.0000000000000000e+00  5.8292032487639034e-06 -5.3584967864284128e-07 0.0000000000000000e+00  6.6455454464930952e-06 -5.2044577152077220e-07 0.0000000000000000e+00  7.4310824816903320e-06 -4.9829595497041801e-07 0.0000000000000000e+00  8.1728278840120794e-06 -4.6976922941921462e-07 0.0000000000000000e+00  8.8580383638126037e-06 -4.3494299609148079e-07 0.0000000000000000e+00  9.4736874218792622e-06 -3.9363602190312097e-07 0.0000000000000000e+00  1.0006008954954737e-05 -3.4544808782954739e-07 0.0000000000000000e+00  1.0440133204503432e-05 -2.8981481647871732e-07 0.0000000000000000e+00  1.0759853326991475e-05 -2.2608698720116838e-07 0.0000000000000000e+00  1.0947578914732858e-05 -1.5364482172652849e-07 0.0000000000000000e+00  1.0984553236559336e-05 -7.2059616551545247e-08 0.0000000000000000e+00  1.0851437205916525e-05 1.8682557945126632e-08 0.0000000000000000e+00  1.0529388580371446e-05 1.1787501899562791e-07 0.0000000000000000e+00  1.0001818703697651e-05 2.2367926334754262e-07 0.0000000000000000e+00  9.2570100478361894e-06 3.3256206673215605e-07 0.0000000000000000e+00  8.2920835451361086e-06 4.3856783762952212e-07 0.0000000000000000e+00  7.1176848190912523e-06 5.3210557776628420e-07 0.0000000000000000e+00  5.7685741468027629e-06 5.9911364946874102e-07 0.0000000000000000e+00  4.3051901377211266e-06 6.1670017481585404e-07 0.0000000000000000e+00  2.8371166376217616e-06 5.5248363609039508e-07 0.0000000000000000e+00  1.5905168067043007e-06 3.6753858240201609e-07 0.0000000000000000e+00  6.6754178495997962e-07 5.0770914028497316e-08 0.0000000000000000e+00  0.0000000000000000e+00 0.0000000000000000e+00 0.0000000000000000e+00  0.0000000000000000e+00 0.0000000000000000e+00 0.0000000000000000e+00  3.0458771021341091e-07 -2.8950168437513746e-07 0.0000000000000000e+00  6.8197191911700816e-07 -6.2513972511057947e-07 0.0000000000000000e+00  1.3541018398927074e-06 -9.4261553543195653e-07 0.0000000000000000e+00  2.2612188336490480e-06 -1.2022412928802684e-06 0.0000000000000000e+00  3.3667879537901957e-06 -1.3989156698174243e-06 0.0000000000000000e+00  4.6215463577747862e-06 -1.5381730191499354e-06 0.0000000000000000e+00  5.9813613281223255e-06 -1.6278785975876175e-06 0.0000000000000000e+00  7.4065659571020959e-06 -1.6753617095716100e-06 0.0000000000000000e+00  8.8622724221942839e-06 -1.6867368860945531e-06 0.0000000000000000e+00  1.0317670070869589e-05 -1.6667200238157376e-06 0.0000000000000000e+00  1.1745052646894294e-05 -1.6186877282164946e-06 0.0000000000000000e+00  1.3118830137215376e-05 -1.5447849929794977e-06 0.0000000000000000e+00  1.4414574327825669e-05 -1.4460371972335739e-06 0.0000000000000000e+00  1.5608139834810686e-05 -1.3224620021290434e-06 0.0000000000000000e+00  1.6674886004985900e-05 -1.1731933843295295e-06 0.0000000000000000e+00  1.7589032203724209e-05 -9.9663905461788715e-07 0.0000000000000000e+00  1.8323195132730064e-05 -7.9069749880922302e-07 0.0000000000000000e+00  1.8848178349628597e-05 -5.5306512206088065e-07 0.0000000000000000e+00  1.9133110517266516e-05 -2.8166864726730800e-07 0.0000000000000000e+00  1.9146059276886618e-05 2.4736155540550087e-08 0.0000000000000000e+00  1.8855285291774493e-05 3.6575028436458545e-07 0.0000000000000000e+00  1.8231335463081422e-05 7.3824175431114192e-07 0.0000000000000000e+00  1.7250247390965256e-05 1.1349043587960406e-06 0.0000000000000000e+00  1.5898098068456434e-05 1.5423703029759928e-06 0.0000000000000000e+00  1.4177479318089325e-05 1.9387395560066523e-06 0.0000000000000000e+00  1.2115448247751459e-05 2.2904398713219365e-06 0.0000000000000000e+00  9.7763882331847185e-06 2.5481361655699253e-06 0.0000000000000000e+00  7.2654198297605888e-06 2.6419213391415397e-06 0.0000000000000000e+00  4.7811143444320692e-06 2.4795768547858366e-06 0.0000000000000000e+00  2.4718484579189237e-06 1.9538204041880114e-06 0.0000000000000000e+00  8.7245285262937955e-07 9.2428965409174779e-07 0.0000000000000000e+00  0.0000000000000000e+00 0.0000000000000000e+00 0.0000000000000000e+00  0.0000000000000000e+00 0.0000000000000000e+00 0.0000000000000000e+00  4.0200877210461172e-07 -6.3339300337972304e-07 0.0000000000000000e+00  9.8810934319459864e-07 -1.2843896649711306e-06 0.0000000000000000e+00  1.9347919360951371e-06 -1.8890124368342587e-06 0.0000000000000000e+00  3.1623643980127625e-06 -2.3921318090536214e-06 0.0000000000000000e+00  4.6286855581167963e-06 -2.7820426683200505e-06 0.0000000000000000e+00  6.2780047065391642e-06 -3.0645408455598488e-06 0.0000000000000000e+00  8.0593005750140279e-06 -3.2510074026714797e-06 0.0000000000000000e+00  9.9245412524817667e-06 -3.3534093569209666e-06 0.0000000000000000e+00  1.1830080735963922e-05 -3.3822620388035407e-06 0.0000000000000000e+00  1.3736120658247586e-05 -3.3459173308103551e-06 0.0000000000000000e+00  1.5605934586382375e-05 -3.2504250440101856e-06 0.0000000000000000e+00  1.7404904263829124e-05 -3.0995979279080377e-06 0.0000000000000000e+00  1.9099522403642766e-05 -2.8951642359054119e-06 0.0000000000000000e+00  2.0656450958944639e-05 -2.6369678194360091e-06 0.0000000000000000e+00  2.2041694003771539e-05 -2.3232234903913795e-06 0.0000000000000000e+00  2.3219946276409331e-05 -1.9508583606886454e-06 0.0000000000000000e+00  2.4154190263692144e-05 -1.5159837249423269e-06 0.0000000000000000e+00  2.4805635524094427e-05 -1.0145525318749904e-06 0.0000000000000000e+00  2.5134121321102043e-05 -4.4326727693944079e-07 0.0000000000000000e+00  2.5099135280148843e-05 1.9918621069203724e-07 0.0000000000000000e+00  2.4661638702294653e-05 9.1049122591391196e-07 0.0000000000000000e+00  2.3786920583246385e-05 1.6825365897199518e-06 0.0000000000000000e+00  2.2448763168148034e-05 2.4986199690379962e-06 0.0000000000000000e+00  2.0635131560586828e-05 3.3298880650067808e-06 0.0000000000000000e+00  1.8355939511049968e-05 4.1309014893187168e-06 0.0000000000000000e+00  1.5652069352167786e-05 4.8342675670887125e-06 0.0000000000000000e+00  1.2609093547499839e-05 5.3446221578989928e-06 0.0000000000000000e+00  9.3624849322182513e-06 5.5331914649014990e-06 0.0000000000000000e+00  6.1381175724406489e-06 5.2373898181690137e-06 0.0000000000000000e+00  3.1537688900407090e-06 4.2676303105837476e-06 0.0000000000000000e+00  1.0708410220772180e-06 2.5035464624734161e-06 0.0000000000000000e+00  0.0000000000000000e+00 0.0000000000000000e+00 0.0000000000000000e+00  0.0000000000000000e+00 0.0000000000000000e+00 0.0000000000000000e+00  4.7569306856759530e-07 -1.1178064785177799e-06 0.0000000000000000e+00  1.2231379906274542e-06 -2.1594026615723294e-06 0.0000000000000000e+00  2.3840071585179423e-06 -3.0953177847514723e-06 0.0000000000000000e+00  3.8557759762247734e-06 -3.8745551294572245e-06 0.0000000000000000e+00  5.5872439669313323e-06 -4.4847499538480662e-06 0.0000000000000000e+00  7.5181128535439790e-06 -4.9326467193022694e-06 0.0000000000000000e+00  9.5938655313987375e-06 -5.2325616324011559e-06 0.0000000000000000e+00  1.1762430272566071e-05 -5.4002812006903600e-06 0.0000000000000000e+00  1.3975489535078545e-05 -5.4501345108370902e-06 0.0000000000000000e+00  1.6187918442045479e-05 -5.3937473532550406e-06 0.0000000000000000e+00  1.8357200554652842e-05 -5.2396041573254948e-06 0.0000000000000000e+00  2.0442569322098869e-05 -4.9930015166843589e-06 0.0000000000000000e+00  2.2404099185302506e-05 -4.6562027388175053e-06 0.0000000000000000e+00  2.4201832177661586e-05 -4.2287197794532716e-06 0.0000000000000000e+00  2.5795022807861834e-05 -3.7077204844693235e-06 0.0000000000000000e+00  2.7141581432132966e-05 -3.0885965501270540e-06 0.0000000000000000e+00  2.8197805012286636e-05 -2.3657523251507939e-06 0.0000000000000000e+00  2.8918502314567718e-05 -1.5336925210940322e-06 0.0000000000000000e+00  2.9257645106417485e-05 -5.8850224743389745e-07 0.0000000000000000e+00  2.9169705211495867e-05 4.7017256160630794e-07 0.0000000000000000e+00  2.8611870344530388e-05 1.6365220074088249e-06 0.0000000000000000e+00  2.7547353926626883e-05 2.8952116870040179e-06 0.0000000000000000e+00  2.5950062622737136e-05 4.2171249261535593e-06 0.0000000000000000e+00  2.3810789203881910e-05 5.5540820709243377e-06 0.0000000000000000e+00  2.1145426372992659e-05 6.8324777677819526e-06 0.0000000000000000e+00  1.8004240481150902e-05 7.9459493241840207e-06 0.0000000000000000e+00  1.4486137694724732e-05 8.7476983280376786e-06 0.0000000000000000e+00  1.0742892259774095e-05 9.0439449881296596e-06 0.0000000000000000e+00  7.0283684059369023e-06 8.5919780898890963e-06 0.0000000000000000e+00  3.5956019095451097e-06 7.1105520434988634e-06 0.0000000000000000e+00  1.1928404637373546e-06 4.2957538946009066e-06 0.0000000000000000e+00  0.0000000000000000e+00 0.0000000000000000e+00 0.0000000000000000e+00  0.0000000000000000e+00 0.0000000000000000e+00 0.0000000000000000e+00  5.2691869074222852e-07 -1.7040309836791057e-06 0.0000000000000000e+00  1.3830115494356532e-06 -3.1980633583006401e-06 0.0000000000000000e+00  2.6919194339447561e-06 -4.4983481956306637e-06 0.0000000000000000e+00  4.3312183615196176e-06 -5.5722142899006233e-06 0.0000000000000000e+00  6.2401961795910399e-06 -6.4148587306245286e-06 0.0000000000000000e+00  8.3540858163422271e-06 -7.0371647994393882e-06 0.0000000000000000e+00  1.0616164318355548e-05 -7.4569591716477923e-06 0.0000000000000000e+00  1.2972630252516826e-05 -7.6934699475561530e-06 0.0000000000000000e+00  1.5373163868459550e-05 -7.7642485504791914e-06 0.0000000000000000e+00  1.7770113779458363e-05 -7.6836227753673825e-06 0.0000000000000000e+00  2.0117920543794021e-05 -7.4620403915925948e-06 0.0000000000000000e+00  2.2372329714581696e-05 -7.1059187904953802e-06 0.0000000000000000e+00  2.4489593787646591e-05 -6.6177926531518771e-06 0.0000000000000000e+00  2.6425712510769195e-05 -5.9966762161467457e-06 0.0000000000000000e+00  2.8135798785022814e-05 -5.2386324411735075e-06 0.0000000000000000e+00  2.9573653424819213e-05 -4.3375892560537643e-06 0.0000000000000000e+00  3.0691642584290690e-05 -3.2864763451212475e-06 0.0000000000000000e+00  3.1440987609654414e-05 -2.0787805712352281e-06 0.0000000000000000e+00  3.1772598236390337e-05 -7.1063847262298196e-07 0.0000000000000000e+00  3.1638604188755082e-05 8.1639810256550760e-07 0.0000000000000000e+00  3.0994768252190497e-05 2.4917728135287476e-06 0.0000000000000000e+00  2.9803979955778104e-05 4.2913539071154361e-06 0.0000000000000000e+00  2.8041073978357645e-05 6.1717305630537567e-06 0.0000000000000000e+00  2.5699113743726798e-05 8.0632626502374904e-06 0.0000000000000000e+00  2.2797653842498988e-05 9.8618737315314675e-06 0.0000000000000000e+00  1.9392024349862425e-05 1.1419784459953952e-05 0.0000000000000000e+00  1.5588027348023559e-05 1.2535847407013634e-05 0.0000000000000000e+00  1.1546912809023979e-05 1.2946600820407106e-05 0.0000000000000000e+00  7.5399742263115854e-06 1.2320868599258183e-05 0.0000000000000000e+00  3.8403143043375110e-06 1.0256403183417362e-05 0.0000000000000000e+00  1.2607349173521243e-06 6.2873974921995313e-06 0.0000000000000000e+00  0.0000000000000000e+00 0.0000000000000000e+00 0.0000000000000000e+00  0.0000000000000000e+00 0.0000000000000000e+00 0.0000000000000000e+00  5.5836528033148536e-07 -2.3524822642395637e-06 0.0000000000000000e+00  1.4743805314826330e-06 -4.3392660381003090e-06 0.0000000000000000e+00  2.8670891078497185e-06 -6.0252526626891623e-06 0.0000000000000000e+00  4.5999598623502891e-06 -7.4031484444403439e-06 0.0000000000000000e+00  6.6049132799728127e-06 -8.4815758674694486e-06 0.0000000000000000e+00  8.8133350660823950e-06 -9.2789619474120677e-06 0.0000000000000000e+00  1.1167101792164402e-05 -9.8180694736993424e-06 0.0000000000000000e+00  1.3611991638406984e-05 -1.0121849020217066e-05 0.0000000000000000e+00  1.6097436942974497e-05 -1.0210809852362335e-05 0.0000000000000000e+00  1.8575311134694239e-05 -1.0101536945861245e-05 0.0000000000000000e+00  2.0999213142469664e-05 -9.8059973613895401e-06 0.0000000000000000e+00  2.3323683745801738e-05 -9.3313601107203326e-06 0.0000000000000000e+00  2.5503482589894766e-05 -8.6801681632442396e-06 0.0000000000000000e+00  2.7492933417416765e-05 -7.8507941957406402e-06 0.0000000000000000e+00  2.9245409317590898e-05 -6.8381793042471273e-06 0.0000000000000000e+00  3.0713030612083969e-05 -5.6349041320791216e-06 0.0000000000000000e+00  3.1846663540058273e-05 -4.2326791299673872e-06 0.0000000000000000e+00  3.2596322996125693e-05 -2.6243699383643460e-06 0.0000000000000000e+00  3.2912101810556038e-05 -8.0669812962952392e-07 0.0000000000000000e+00  3.2745770615072445e-05 1.2162223509415426e-06 0.0000000000000000e+00  3.2053218316452359e-05 3.4283381528110723e-06 0.0000000000000000e+00  3.0797918789016165e-05 5.7959192304446461e-06 0.0000000000000000e+00  2.8955661752760875e-05 8.2604656709284185e-06 0.0000000000000000e+00  2.6520692356424291e-05 1.0730139490044976e-05 0.0000000000000000e+00  2.3513846405087691e-05 1.3069709439150756e-05 0.0000000000000000e+00  1.9991768579252778e-05 1.5089171545912272e-05 0.0000000000000000e+00  1.6062199888366990e-05 1.6531539562714137e-05 0.0000000000000000e+00  1.1889319333935333e-05 1.7060444024386001e-05 0.0000000000000000e+00  7.7532253413004071e-06 1.6248884215919190e-05 0.0000000000000000e+00  3.9330644616697441e-06 1.3567124205637882e-05 0.0000000000000000e+00  1.2858884819166860e-06 8.3760714073566334e-06 0.0000000000000000e+00  0.0000000000000000e+00 0.0000000000000000e+00 0.0000000000000000e+00  0.0000000000000000e+00 0.0000000000000000e+00 0.0000000000000000e+00  5.7343116875024913e-07 -3.0286662959233546e-06 0.0000000000000000e+00  1.5067112203170918e-06 -5.5280530519841165e-06 0.0000000000000000e+00  2.9246195491494653e-06 -7.6092846901243405e-06 0.0000000000000000e+00  4.6826995198645527e-06 -9.2927589793179166e-06 0.0000000000000000e+00  6.7087671151155881e-06 -1.0603995602154193e-05 0.0000000000000000e+00  8.9318682841010855e-06 -1.1571684722766484e-05 0.0000000000000000e+00  1.1293488776709104e-05 -1.2225070836535679e-05 0.0000000000000000e+00  1.3740020734454017e-05 -1.2591447522580790e-05 0.0000000000000000e+00  1.6221931622983909e-05 -1.2694342009622606e-05 0.0000000000000000e+00  1.8692153524679789e-05 -1.2552387843034474e-05 0.0000000000000000e+00  2.1105178732439001e-05 -1.2178776911619948e-05 0.0000000000000000e+00  2.3416224433359112e-05 -1.1581155711759550e-05 0.0000000000000000e+00  2.5580539467107144e-05 -1.0761877415332854e-05 0.0000000000000000e+00  2.7552822791765408e-05 -9.7185762605311865e-06 0.0000000000000000e+00  2.9286799719363543e-05 -8.4450838176985954e-06 0.0000000000000000e+00  3.0735010547955355e-05 -6.9327515962447350e-06 0.0000000000000000e+00  3.1848886188567960e-05 -5.1722816692967299e-06 0.0000000000000000e+00  3.2579201084237397e-05 -3.1561986283401566e-06 0.0000000000000000e+00  3.2877012828835817e-05 -8.8212339843796173e-07 0.0000000000000000e+00  3.2695219005729470e-05 1.6429676273910232e-06 0.0000000000000000e+00  3.1990889326927174e-05 4.3972979583140059e-06 0.0000000000000000e+00  3.0728551463798937e-05 7.3374543478887944e-06 0.0000000000000000e+00  2.8884675947526972e-05 1.0389963483015130e-05 0.0000000000000000e+00  2.6453529201830861e-05 1.3441126961444283e-05 0.0000000000000000e+00  2.3455075935707725e-05 1.6325044803533473e-05 0.0000000000000000e+00  1.9944062837229382e-05 1.8809872327496535e-05 0.0000000000000000e+00  1.6025775925410102e-05 2.0582567470395219e-05 0.0000000000000000e+00  1.1861338563345925e-05 2.1232269069137999e-05 0.0000000000000000e+00  7.7313740991513669e-06 2.0233132983271673e-05 0.0000000000000000e+00  3.9081430891485525e-06 1.6923644625688183e-05 0.0000000000000000e+00  1.2782978329184402e-06 1.0490069152879755e-05 0.0000000000000000e+00  0.0000000000000000e+00 0.0000000000000000e+00 0.0000000000000000e+00  0.0000000000000000e+00 0.0000000000000000e+00 0.0000000000000000e+00  5.7510107987629455e-07 -3.7037391009131504e-06 0.0000000000000000e+00  1.4893907367002912e-06 -6.7159361469837364e-06 0.0000000000000000e+00  2.8810873586859742e-06 -9.1895954696386006e-06 0.0000000000000000e+00  4.6032182599020643e-06 -1.1172458045050071e-05 0.0000000000000000e+00  6.5830485554418949e-06 -1.2708302985720010e-05 0.0000000000000000e+00  8.7493644265190795e-06 -1.3837677276806737e-05 0.0000000000000000e+00  1.1044589222297674e-05 -1.4597500653745765e-05 0.0000000000000000e+00  1.3416795385579050e-05 -1.5020076351457412e-05 0.0000000000000000e+00  1.5818578072201994e-05 -1.5132195887890276e-05 0.0000000000000000e+00  1.8205153338168856e-05 -1.4954530080490969e-05 0.0000000000000000e+00  2.0533289403545929e-05 -1.4501367430752587e-05 0.0000000000000000e+00  2.2760401628518778e-05 -1.3780685228059752e-05 0.0000000000000000e+00  2.4843859490530917e-05 -1.2794540054206216e-05 0.0000000000000000e+00  2.6740445630224485e-05 -1.1539789459447114e-05 0.0000000000000000e+00  2.8405988107271796e-05 -1.0009192422222313e-05 0.0000000000000000e+00  2.9795200217952456e-05 -8.1929727051566203e-06 0.0000000000000000e+00  3.0861784787061808e-05 -6.0809639362835455e-06 0.0000000000000000e+00 