<?xml version="1.0"?>
<VTKFile type="UnstructuredGrid"  version="0.1"  >
<UnstructuredGrid>
<Piece  NumberOfPoints="64" NumberOfCells="162">
<Points>
<DataArray  type="Float64"  NumberOfComponents="3"  format="ascii">-1 -1 -1  -0.3333333333333334 -1 -1  0.3333333333333333 -1 -1  1 -1 -1  -1 -0.3333333333333334 -1  -0.3333333333333334 -0.3333333333333334 -1  0.3333333333333333 -0.3333333333333334 -1  1 -0.3333333333333334 -1  -1 0.3333333333333333 -1  -0.3333333333333334 0.3333333333333333 -1  0.3333333333333333 0.3333333333333333 -1  1 0.3333333333333333 -1  -1 1 -1  -0.3333333333333334 1 -1  0.3333333333333333 1 -1  1 1 -1  -1 -1 -0.3333333333333334  -0.3333333333333334 -1 -0.3333333333333334  0.3333333333333333 -1 -0.3333333333333334  1 -1 -0.3333333333333334  -1 -0.3333333333333334 -0.3333333333333334  -0.3333333333333334 -0.3333333333333334 -0.3333333333333334  0.3333333333333333 -0.3333333333333334 -0.3333333333333334  1 -0.3333333333333334 -0.3333333333333334  -1 0.3333333333333333 -0.3333333333333334  -0.3333333333333334 0.3333333333333333 -0.3333333333333334  0.3333333333333333 0.3333333333333333 -0.3333333333333334  1 0.3333333333333333 -0.3333333333333334  -1 1 -0.3333333333333334  -0.3333333333333334 1 -0.3333333333333334  0.3333333333333333 1 -0.3333333333333334  1 1 -0.3333333333333334  -1 -1 0.3333333333333333  -0.3333333333333334 -1 0.3333333333333333  0.3333333333333333 -1 0.3333333333333333  1 -1 0.3333333333333333  -1 -0.3333333333333334 0.3333333333333333  -0.3333333333333334 -0.3333333333333334 0.3333333333333333  0.3333333333333333 -0.3333333333333334 0.3333333333333333  1 -0.3333333333333334 0.3333333333333333  -1 0.3333333333333333 0.3333333333333333  -0.3333333333333334 0.3333333333333333 0.3333333333333333  0.3333333333333333 0.3333333333333333 0.3333333333333333  1 0.3333333333333333 0.3333333333333333  -1 1 0.3333333333333333  -0.3333333333333334 1 0.3333333333333333  0.3333333333333333 1 0.3333333333333333  1 1 0.3333333333333333  -1 -1 1  -0.3333333333333334 -1 1  0.3333333333333333 -1 1  1 -1 1  -1 -0.3333333333333334 1  -0.3333333333333334 -0.3333333333333334 1  0.3333333333333333 -0.3333333333333334 1  1 -0.3333333333333334 1  -1 0.3333333333333333 1  -0.3333333333333334 0.3333333333333333 1  0.3333333333333333 0.3333333333333333 1  1 0.3333333333333333 1  -1 1 1  -0.3333333333333334 1 1  0.3333333333333333 1 1  1 1 1  </DataArray>
</Points>
<Cells>
<DataArray  type="UInt32"  Name="connectivity"  format="ascii">0 1 5 21  0 1 17 21  0 16 17 21  0 4 5 21  0 16 20 21  0 4 20 21  1 2 6 22  1 2 18 22  1 17 18 22  1 5 6 22  1 17 21 22  1 5 21 22  2 3 7 23  2 3 19 23  2 18 19 23  2 6 7 23  2 18 22 23  2 6 22 23  4 5 9 25  4 5 21 25  4 20 21 25  4 8 9 25  4 20 24 25  4 8 24 25  5 6 10 26  5 6 22 26  5 21 22 26  5 9 10 26  5 21 25 26  5 9 25 26  6 7 11 27  6 7 23 27  6 22 23 27  6 10 11 27  6 22 26 27  6 10 26 27  8 9 13 29  8 9 25 29  8 24 25 29  8 12 13 29  8 24 28 29  8 12 28 29  9 10 14 30  9 10 26 30  9 25 26 30  9 13 14 30  9 25 29 30  9 13 29 30  10 11 15 31  10 11 27 31  10 26 27 31  10 14 15 31  10 26 30 31  10 14 30 31  16 17 21 37  16 17 33 37  16 32 33 37  16 20 21 37  16 32 36 37  16 20 36 37  17 18 22 38  17 18 34 38  17 33 34 38  17 21 22 38  17 33 37 38  17 21 37 38  18 19 23 39  18 19 35 39  18 34 35 39  18 22 23 39  18 34 38 39  18 22 38 39  20 21 25 41  20 21 37 41  20 36 37 41  20 24 25 41  20 36 40 41  20 24 40 41  21 22 26 42  21 22 38 42  21 37 38 42  21 25 26 42  21 37 41 42  21 25 41 42  22 23 27 43  22 23 39 43  22 38 39 43  22 26 27 43  22 38 42 43  22 26 42 43  24 25 29 45  24 25 41 45  24 40 41 45  24 28 29 45  24 40 44 45  24 28 44 45  25 26 30 46  25 26 42 46  25 41 42 46  25 29 30 46  25 41 45 46  25 29 45 46  26 27 31 47  26 27 43 47  26 42 43 47  26 30 31 47  26 42 46 47  26 30 46 47  32 33 37 53  32 33 49 53  32 48 49 53  32 36 37 53  32 48 52 53  32 36 52 53  33 34 38 54  33 34 50 54  33 49 50 54  33 37 38 54  33 49 53 54  33 37 53 54  34 35 39 55  34 35 51 55  34 50 51 55  34 38 39 55  34 50 54 55  34 38 54 55  36 37 41 57  36 37 53 57  36 52 53 57  36 40 41 57  36 52 56 57  36 40 56 57  37 38 42 58  37 38 54 58  37 53 54 58  37 41 42 58  37 53 57 58  37 41 57 58  38 39 43 59  38 39 55 59  38 54 55 59  38 42 43 59  38 54 58 59  38 42 58 59  40 41 45 61  40 41 57 61  40 56 57 61  40 44 45 61  40 56 60 61  40 44 60 61  41 42 46 62  41 42 58 62  41 57 58 62  41 45 46 62  41 57 61 62  41 45 61 62  42 43 47 63  42 43 59 63  42 58 59 63  42 46 47 63  42 58 62 63  42 46 62 63  </DataArray>
<DataArray  type="UInt32"  Name="offsets"  format="ascii">4 8 12 16 20 24 28 32 36 40 44 48 52 56 60 64 68 72 76 80 84 88 92 96 100 104 108 112 116 120 124 128 132 136 140 144 148 152 156 160 164 168 172 176 180 184 188 192 196 200 204 208 212 216 220 224 228 232 236 240 244 248 252 256 260 264 268 272 276 280 284 288 292 296 300 304 308 312 316 320 324 328 332 336 340 344 348 352 356 360 364 368 372 376 380 384 388 392 396 400 404 408 412 416 420 424 428 432 436 440 444 448 452 456 460 464 468 472 476 480 484 488 492 496 500 504 508 512 516 520 524 528 532 536 540 544 548 552 556 560 564 568 572 576 580 584 588 592 596 600 604 608 612 616 620 624 628 632 636 640 644 648 </DataArray>
<DataArray  type="UInt8"  Name="types"  format="ascii">10 10 10 10 10 10 10 10 10 10 10 10 10 10 10 10 10 10 10 10 10 10 10 10 10 10 10 10 10 10 10 10 10 10 10 10 10 10 10 10 10 10 10 10 10 10 10 10 10 10 10 10 10 10 10 10 10 10 10 10 10 10 10 10 10 10 10 10 10 10 10 10 10 10 10 10 10 10 10 10 10 10 10 10 10 10 10 10 10 10 10 10 10 10 10 10 10 10 10 10 10 10 10 10 10 10 10 10 10 10 10 10 10 10 10 10 10 10 10 10 10 10 10 10 10 10 10 10 10 10 10 10 10 10 10 10 10 10 10 10 10 10 10 10 10 10 10 10 10 10 10 10 10 10 10 10 10 10 10 10 10 10 </DataArray>
</Cells>
<PointData  Vectors="f_12"> 
<DataArray  type="Float64"  Name="f_12"  NumberOfComponents="3" format="ascii">0.0000000000000000e+00 0.0000000000000000e+00 0.0000000000000000e+00  0.0000000000000000e+00 0.0000000000000000e+00 0.0000000000000000e+00  0.0000000000000000e+00 0.0000000000000000e+00 0.0000000000000000e+00  0.0000000000000000e+00 0.0000000000000000e+00 0.0000000000000000e+00  0.0000000000000000e+00 0.0000000000000000e+00 0.0000000000000000e+00  -4.3105778362273924e-02 -2.9020282758975176e-03 2.2525058171745341e-02  -3.2486192432221409e-02 5.4243199995179106e-03 -2.9801316486748251e-02  0.0000000000000000e+00 0.0000000000000000e+00 0.0000000000000000e+00  0.0000000000000000e+00 0.0000000000000000e+00 0.0000000000000000e+00  -3.9577394681166951e-02 5.6528522600171138e-04 1.8874414556906163e-02  -3.3184156652633606e-02 2.3502433438014432e-03 -1.9997321658057791e-02  0.0000000000000000e+00 0.0000000000000000e+00 0.0000000000000000e+00  0.0000000000000000e+00 0.0000000000000000e+00 0.0000000000000000e+00  0.0000000000000000e+00 0.0000000000000000e+00 0.0000000000000000e+00  0.0000000000000000e+00 0.0000000000000000e+00 0.0000000000000000e+00  0.0000000000000000e+00 0.0000000000000000e+00 0.0000000000000000e+00  0.0000000000000000e+00 0.0000000000000000e+00 0.0000000000000000e+00  0.0000000000000000e+00 0.0000000000000000e+00 0.0000000000000000e+00  0.0000000000000000e+00 0.0000000000000000e+00 0.0000000000000000e+00  0.0000000000000000e+00 0.0000000000000000e+00 0.0000000000000000e+00  0.0000000000000000e+00 0.0000000000000000e+00 0.0000000000000000e+00  -9.3764476306032005e-02 3.0062847903648366e-03 1.0447965520060688e-01  -9.0205332201852215e-02 6.5168542947263187e-03 -6.3529856749181740e-02  0.0000000000000000e+00 0.0000000000000000e+00 0.0000000000000000e+00  0.0000000000000000e+00 0.0000000000000000e+00 0.0000000000000000e+00  -9.6658798534102794e-02 6.4497926166040822e-03 1.0739212534088848e-01  -1.0037849767046954e-01 -3.1099071576398997e-03 -7.8798042057705506e-02  0.0000000000000000e+00 0.0000000000000000e+00 0.0000000000000000e+00  0.0000000000000000e+00 0.0000000000000000e+00 0.0000000000000000e+00  0.0000000000000000e+00 0.0000000000000000e+00 0.0000000000000000e+00  0.0000000000000000e+00 0.0000000000000000e+00 0.0000000000000000e+00  0.0000000000000000e+00 0.0000000000000000e+00 0.0000000000000000e+00  0.0000000000000000e+00 0.0000000000000000e+00 0.0000000000000000e+00  0.0000000000000000e+00 0.0000000000000000e+00 0.0000000000000000e+00  0.0000000000000000e+00 0.0000000000000000e+00 0.0000000000000000e+00  0.0000000000000000e+00 0.0000000000000000e+00 0.0000000000000000e+00  0.0000000000000000e+00 0.0000000000000000e+00 0.0000000000000000e+00  -1.1629866407812159e-01 -9.8098969248927980e-03 1.6655372320244180e-01  -2.8004046349297679e-01 -7.4875419906464359e-03 -2.3802993449835674e-01  0.0000000000000000e+00 0.0000000000000000e+00 0.0000000000000000e+00  0.0000000000000000e+00 0.0000000000000000e+00 0.0000000000000000e+00  -1.3498611972352287e-01 1.6350128903038056e-02 1.4626825313151168e-01  -2.6957844587144003e-01 -2.1750531827674783e-02 -2.4111188738440728e-01  0.0000000000000000e+00 0.0000000000000000e+00 0.0000000000000000e+00  0.0000000000000000e+00 0.0000000000000000e+00 0.0000000000000000e+00  0.0000000000000000e+00 0.0000000000000000e+00 0.0000000000000000e+00  0.0000000000000000e+00 0.0000000000000000e+00 0.0000000000000000e+00  0.0000000000000000e+00 0.0000000000000000e+00 0.0000000000000000e+00  0.0000000000000000e+00 0.0000000000000000e+00 0.0000000000000000e+00  0.0000000000000000e+00 0.0000000000000000e+00 0.0000000000000000e+00  0.0000000000000000e+00 0.0000000000000000e+00 0.0000000000000000e+00  0.0000000000000000e+00 0.0000000000000000e+00 0.0000000000000000e+00  0.0000000000000000e+00 0.0000000000000000e+00 0.0000000000000000e+00  9.9999999995088285e-01 0.0000000000000000e+00 0.0000000000000000e+00  9.9999999995088285e-01 0.0000000000000000e+00 0.0000000000000000e+00  0.0000000000000000e+00 0.0000000000000000e+00 0.0000000000000000e+00  0.0000000000000000e+00 0.0000000000000000e+00 0.0000000000000000e+00  9.9999999995088285e-01 0.0000000000000000e+00 0.0000000000000000e+00  9.9999999995088285e-01 0.0000000000000000e+00 0.0000000000000000e+00  0.0000000000000000e+00 0.0000000000000000e+00 0.0000000000000000e+00  0.0000000000000000e+00 0.0000000000000000e+00 0.0000000000000000e+00  0.0000000000000000e+00 0.0000000000000000e+00 0.0000000000000000e+00  0.0000000000000000e+00 0.0000000000000000e+00 0.0000000000000000e+00  0.0000000000000000e+00 0.0000000000000000e+00 0.0000000000000000e+00  </DataArray> 
</PointData> 
</Piece>
</UnstructuredGrid>
</VTKFile>