<?xml version="1.0"?>
<VTKFile type="UnstructuredGrid"  version="0.1"  >
<UnstructuredGrid>
<Piece  NumberOfPoints="16641" NumberOfCells="32768">
<Points>
<DataArray  type="Float64"  NumberOfComponents="3"  format="ascii">0 0 0  0.0078125 0 0  0.015625 0 0  0.0234375 0 0  0.03125 0 0  0.0390625 0 0  0.046875 0 0  0.0546875 0 0  0.0625 0 0  0.0703125 0 0  0.078125 0 0  0.0859375 0 0  0.09375 0 0  0.1015625 0 0  0.109375 0 0  0.1171875 0 0  0.125 0 0  0.1328125 0 0  0.140625 0 0  0.1484375 0 0  0.15625 0 0  0.1640625 0 0  0.171875 0 0  0.1796875 0 0  0.1875 0 0  0.1953125 0 0  0.203125 0 0  0.2109375 0 0  0.21875 0 0  0.2265625 0 0  0.234375 0 0  0.2421875 0 0  0.25 0 0  0.2578125 0 0  0.265625 0 0  0.2734375 0 0  0.28125 0 0  0.2890625 0 0  0.296875 0 0  0.3046875 0 0  0.3125 0 0  0.3203125 0 0  0.328125 0 0  0.3359375 0 0  0.34375 0 0  0.3515625 0 0  0.359375 0 0  0.3671875 0 0  0.375 0 0  0.3828125 0 0  0.390625 0 0  0.3984375 0 0  0.40625 0 0  0.4140625 0 0  0.421875 0 0  0.4296875 0 0  0.4375 0 0  0.4453125 0 0  0.453125 0 0  0.4609375 0 0  0.46875 0 0  0.4765625 0 0  0.484375 0 0  0.4921875 0 0  0.5 0 0  0.5078125 0 0  0.515625 0 0  0.5234375 0 0  0.53125 0 0  0.5390625 0 0  0.546875 0 0  0.5546875 0 0  0.5625 0 0  0.5703125 0 0  0.578125 0 0  0.5859375 0 0  0.59375 0 0  0.6015625 0 0  0.609375 0 0  0.6171875 0 0  0.625 0 0  0.6328125 0 0  0.640625 0 0  0.6484375 0 0  0.65625 0 0  0.6640625 0 0  0.671875 0 0  0.6796875 0 0  0.6875 0 0  0.6953125 0 0  0.703125 0 0  0.7109375 0 0  0.71875 0 0  0.7265625 0 0  0.734375 0 0  0.7421875 0 0  0.75 0 0  0.7578125 0 0  0.765625 0 0  0.7734375 0 0  0.78125 0 0  0.7890625 0 0  0.796875 0 0  0.8046875 0 0  0.8125 0 0  0.8203125 0 0  0.828125 0 0  0.8359375 0 0  0.84375 0 0  0.8515625 0 0  0.859375 0 0  0.8671875 0 0  0.875 0 0  0.8828125 0 0  0.890625 0 0  0.8984375 0 0  0.90625 0 0  0.9140625 0 0  0.921875 0 0  0.9296875 0 0  0.9375 0 0  0.9453125 0 0  0.953125 0 0  0.9609375 0 0  0.96875 0 0  0.9765625 0 0  0.984375 0 0  0.9921875 0 0  1 0 0  0 0.01171875 0  0.0078125 0.01171875 0  0.015625 0.01171875 0  0.0234375 0.01171875 0  0.03125 0.01171875 0  0.0390625 0.01171875 0  0.046875 0.01171875 0  0.0546875 0.01171875 0  0.0625 0.01171875 0  0.0703125 0.01171875 0  0.078125 0.01171875 0  0.0859375 0.01171875 0  0.09375 0.01171875 0  0.1015625 0.01171875 0  0.109375 0.01171875 0  0.1171875 0.01171875 0  0.125 0.01171875 0  0.1328125 0.01171875 0  0.140625 0.01171875 0  0.1484375 0.01171875 0  0.15625 0.01171875 0  0.1640625 0.01171875 0  0.171875 0.01171875 0  0.1796875 0.01171875 0  0.1875 0.01171875 0  0.1953125 0.01171875 0  0.203125 0.01171875 0  0.2109375 0.01171875 0  0.21875 0.01171875 0  0.2265625 0.01171875 0  0.234375 0.01171875 0  0.2421875 0.01171875 0  0.25 0.01171875 0  0.2578125 0.01171875 0  0.265625 0.01171875 0  0.2734375 0.01171875 0  0.28125 0.01171875 0  0.2890625 0.01171875 0  0.296875 0.01171875 0  0.3046875 0.01171875 0  0.3125 0.01171875 0  0.3203125 0.01171875 0  0.328125 0.01171875 0  0.3359375 0.01171875 0  0.34375 0.01171875 0  0.3515625 0.01171875 0  0.359375 0.01171875 0  0.3671875 0.01171875 0  0.375 0.01171875 0  0.3828125 0.01171875 0  0.390625 0.01171875 0  0.3984375 0.01171875 0  0.40625 0.01171875 0  0.4140625 0.01171875 0  0.421875 0.01171875 0  0.4296875 0.01171875 0  0.4375 0.01171875 0  0.4453125 0.01171875 0  0.453125 0.01171875 0  0.4609375 0.01171875 0  0.46875 0.01171875 0  0.4765625 0.01171875 0  0.484375 0.01171875 0  0.4921875 0.01171875 0  0.5 0.01171875 0  0.5078125 0.01171875 0  0.515625 0.01171875 0  0.5234375 0.01171875 0  0.53125 0.01171875 0  0.5390625 0.01171875 0  0.546875 0.01171875 0  0.5546875 0.01171875 0  0.5625 0.01171875 0  0.5703125 0.01171875 0  0.578125 0.01171875 0  0.5859375 0.01171875 0  0.59375 0.01171875 0  0.6015625 0.01171875 0  0.609375 0.01171875 0  0.6171875 0.01171875 0  0.625 0.01171875 0  0.6328125 0.01171875 0  0.640625 0.01171875 0  0.6484375 0.01171875 0  0.65625 0.01171875 0  0.6640625 0.01171875 0  0.671875 0.01171875 0  0.6796875 0.01171875 0  0.6875 0.01171875 0  0.6953125 0.01171875 0  0.703125 0.01171875 0  0.7109375 0.01171875 0  0.71875 0.01171875 0  0.7265625 0.01171875 0  0.734375 0.01171875 0  0.7421875 0.01171875 0  0.75 0.01171875 0  0.7578125 0.01171875 0  0.765625 0.01171875 0  0.7734375 0.01171875 0  0.78125 0.01171875 0  0.7890625 0.01171875 0  0.796875 0.01171875 0  0.8046875 0.01171875 0  0.8125 0.01171875 0  0.8203125 0.01171875 0  0.828125 0.01171875 0  0.8359375 0.01171875 0  0.84375 0.01171875 0  0.8515625 0.01171875 0  0.859375 0.01171875 0  0.8671875 0.01171875 0  0.875 0.01171875 0  0.8828125 0.01171875 0  0.890625 0.01171875 0  0.8984375 0.01171875 0  0.90625 0.01171875 0  0.9140625 0.01171875 0  0.921875 0.01171875 0  0.9296875 0.01171875 0  0.9375 0.01171875 0  0.9453125 0.01171875 0  0.953125 0.01171875 0  0.9609375 0.01171875 0  0.96875 0.01171875 0  0.9765625 0.01171875 0  0.984375 0.01171875 0  0.9921875 0.01171875 0  1 0.01171875 0  0 0.0234375 0  0.0078125 0.0234375 0  0.015625 0.0234375 0  0.0234375 0.0234375 0  0.03125 0.0234375 0  0.0390625 0.0234375 0  0.046875 0.0234375 0  0.0546875 0.0234375 0  0.0625 0.0234375 0  0.0703125 0.0234375 0  0.078125 0.0234375 0  0.0859375 0.0234375 0  0.09375 0.0234375 0  0.1015625 0.0234375 0  0.109375 0.0234375 0  0.1171875 0.0234375 0  0.125 0.0234375 0  0.1328125 0.0234375 0  0.140625 0.0234375 0  0.1484375 0.0234375 0  0.15625 0.0234375 0  0.1640625 0.0234375 0  0.171875 0.0234375 0  0.1796875 0.0234375 0  0.1875 0.0234375 0  0.1953125 0.0234375 0  0.203125 0.0234375 0  0.2109375 0.0234375 0  0.21875 0.0234375 0  0.2265625 0.0234375 0  0.234375 0.0234375 0  0.2421875 0.0234375 0  0.25 0.0234375 0  0.2578125 0.0234375 0  0.265625 0.0234375 0  0.2734375 0.0234375 0  0.28125 0.0234375 0  0.2890625 0.0234375 0  0.296875 0.0234375 0  0.3046875 0.0234375 0  0.3125 0.0234375 0  0.3203125 0.0234375 0  0.328125 0.0234375 0  0.3359375 0.0234375 0  0.34375 0.0234375 0  0.3515625 0.0234375 0  0.359375 0.0234375 0  0.3671875 0.0234375 0  0.375 0.0234375 0  0.3828125 0.0234375 0  0.390625 0.0234375 0  0.3984375 0.0234375 0  0.40625 0.0234375 0  0.4140625 0.0234375 0  0.421875 0.0234375 0  0.4296875 0.0234375 0  0.4375 0.0234375 0  0.4453125 0.0234375 0  0.453125 0.0234375 0  0.4609375 0.0234375 0  0.46875 0.0234375 0  0.4765625 0.0234375 0  0.484375 0.0234375 0  0.4921875 0.0234375 0  0.5 0.0234375 0  0.5078125 0.0234375 0  0.515625 0.0234375 0  0.5234375 0.0234375 0  0.53125 0.0234375 0  0.5390625 0.0234375 0  0.546875 0.0234375 0  0.5546875 0.0234375 0  0.5625 0.0234375 0  0.5703125 0.0234375 0  0.578125 0.0234375 0  0.5859375 0.0234375 0  0.59375 0.0234375 0  0.6015625 0.0234375 0  0.609375 0.0234375 0  0.6171875 0.0234375 0  0.625 0.0234375 0  0.6328125 0.0234375 0  0.640625 0.0234375 0  0.6484375 0.0234375 0  0.65625 0.0234375 0  0.6640625 0.0234375 0  0.671875 0.0234375 0  0.6796875 0.0234375 0  0.6875 0.0234375 0  0.6953125 0.0234375 0  0.703125 0.0234375 0  0.7109375 0.0234375 0  0.71875 0.0234375 0  0.7265625 0.0234375 0  0.734375 0.0234375 0  0.7421875 0.0234375 0  0.75 0.0234375 0  0.7578125 0.0234375 0  0.765625 0.0234375 0  0.7734375 0.0234375 0  0.78125 0.0234375 0  0.7890625 0.0234375 0  0.796875 0.0234375 0  0.8046875 0.0234375 0  0.8125 0.0234375 0  0.8203125 0.0234375 0  0.828125 0.0234375 0  0.8359375 0.0234375 0  0.84375 0.0234375 0  0.8515625 0.0234375 0  0.859375 0.0234375 0  0.8671875 0.0234375 0  0.875 0.0234375 0  0.8828125 0.0234375 0  0.890625 0.0234375 0  0.8984375 0.0234375 0  0.90625 0.0234375 0  0.9140625 0.0234375 0  0.921875 0.0234375 0  0.9296875 0.0234375 0  0.9375 0.0234375 0  0.9453125 0.0234375 0  0.953125 0.0234375 0  0.9609375 0.0234375 0  0.96875 0.0234375 0  0.9765625 0.0234375 0  0.984375 0.0234375 0  0.9921875 0.0234375 0  1 0.0234375 0  0 0.03515625 0  0.0078125 0.03515625 0  0.015625 0.03515625 0  0.0234375 0.03515625 0  0.03125 0.03515625 0  0.0390625 0.03515625 0  0.046875 0.03515625 0  0.0546875 0.03515625 0  0.0625 0.03515625 0  0.0703125 0.03515625 0  0.078125 0.03515625 0  0.0859375 0.03515625 0  0.09375 0.03515625 0  0.1015625 0.03515625 0  0.109375 0.03515625 0  0.1171875 0.03515625 0  0.125 0.03515625 0  0.1328125 0.03515625 0  0.140625 0.03515625 0  0.1484375 0.03515625 0  0.15625 0.03515625 0  0.1640625 0.03515625 0  0.171875 0.03515625 0  0.1796875 0.03515625 0  0.1875 0.03515625 0  0.1953125 0.03515625 0  0.203125 0.03515625 0  0.2109375 0.03515625 0  0.21875 0.03515625 0  0.2265625 0.03515625 0  0.234375 0.03515625 0  0.2421875 0.03515625 0  0.25 0.03515625 0  0.2578125 0.03515625 0  0.265625 0.03515625 0  0.2734375 0.03515625 0  0.28125 0.03515625 0  0.2890625 0.03515625 0  0.296875 0.03515625 0  0.3046875 0.03515625 0  0.3125 0.03515625 0  0.3203125 0.03515625 0  0.328125 0.03515625 0  0.3359375 0.03515625 0  0.34375 0.03515625 0  0.3515625 0.03515625 0  0.359375 0.03515625 0  0.3671875 0.03515625 0  0.375 0.03515625 0  0.3828125 0.03515625 0  0.390625 0.03515625 0  0.3984375 0.03515625 0  0.40625 0.03515625 0  0.4140625 0.03515625 0  0.421875 0.03515625 0  0.4296875 0.03515625 0  0.4375 0.03515625 0  0.4453125 0.03515625 0  0.453125 0.03515625 0  0.4609375 0.03515625 0  0.46875 0.03515625 0  0.4765625 0.03515625 0  0.484375 0.03515625 0  0.4921875 0.03515625 0  0.5 0.03515625 0  0.5078125 0.03515625 0  0.515625 0.03515625 0  0.5234375 0.03515625 0  0.53125 0.03515625 0  0.5390625 0.03515625 0  0.546875 0.03515625 0  0.5546875 0.03515625 0  0.5625 0.03515625 0  0.5703125 0.03515625 0  0.578125 0.03515625 0  0.5859375 0.03515625 0  0.59375 0.03515625 0  0.6015625 0.03515625 0  0.609375 0.03515625 0  0.6171875 0.03515625 0  0.625 0.03515625 0  0.6328125 0.03515625 0  0.640625 0.03515625 0  0.6484375 0.03515625 0  0.65625 0.03515625 0  0.6640625 0.03515625 0  0.671875 0.03515625 0  0.6796875 0.03515625 0  0.6875 0.03515625 0  0.6953125 0.03515625 0  0.703125 0.03515625 0  0.7109375 0.03515625 0  0.71875 0.03515625 0  0.7265625 0.03515625 0  0.734375 0.03515625 0  0.742
[...]
<PointData  Vectors="f_361"> 
<DataArray  type="Float64"  Name="f_361"  NumberOfComponents="3" format="ascii">1.8879763094567479e-04 0.0000000000000000e+00 0.0000000000000000e+00  5.6639286591860048e-04 0.0000000000000000e+00 0.0000000000000000e+00  9.4398802013625821e-04 0.0000000000000000e+00 0.0000000000000000e+00  1.3215830397618157e-03 0.0000000000000000e+00 0.0000000000000000e+00  1.6991778709584595e-03 0.0000000000000000e+00 0.0000000000000000e+00  2.0767724598894032e-03 0.0000000000000000e+00 0.0000000000000000e+00  2.4543667527178949e-03 0.0000000000000000e+00 0.0000000000000000e+00  2.8319606956072252e-03 0.0000000000000000e+00 0.0000000000000000e+00  3.2095542347207349e-03 0.0000000000000000e+00 0.0000000000000000e+00  3.5871473162218202e-03 0.0000000000000000e+00 0.0000000000000000e+00  3.9647398862739450e-03 0.0000000000000000e+00 0.0000000000000000e+00  4.3423318910406454e-03 0.0000000000000000e+00 0.0000000000000000e+00  4.7199232766855382e-03 0.0000000000000000e+00 0.0000000000000000e+00  5.0975139893723277e-03 0.0000000000000000e+00 0.0000000000000000e+00  5.4751039752648153e-03 0.0000000000000000e+00 0.0000000000000000e+00  5.8526931805269050e-03 0.0000000000000000e+00 0.0000000000000000e+00  6.2302815513226133e-03 0.0000000000000000e+00 0.0000000000000000e+00  6.6078690338160738e-03 0.0000000000000000e+00 0.0000000000000000e+00  6.9854555741715478e-03 0.0000000000000000e+00 0.0000000000000000e+00  7.3630411185534317e-03 0.0000000000000000e+00 0.0000000000000000e+00  7.7406256131262625e-03 0.0000000000000000e+00 0.0000000000000000e+00  8.1182090040547300e-03 0.0000000000000000e+00 0.0000000000000000e+00  8.4957912375036755e-03 0.0000000000000000e+00 0.0000000000000000e+00  8.8733722596381088e-03 0.0000000000000000e+00 0.0000000000000000e+00  9.2509520166232130e-03 0.0000000000000000e+00 0.0000000000000000e+00  9.6285304546243553e-03 0.0000000000000000e+00 0.0000000000000000e+00  1.0006107519807083e-02 0.0000000000000000e+00 0.0000000000000000e+00  1.0383683158337140e-02 0.0000000000000000e+00 0.0000000000000000e+00  1.0761257316380481e-02 0.0000000000000000e+00 0.0000000000000000e+00  1.1138829940103265e-02 0.0000000000000000e+00 0.0000000000000000e+00  1.1516400975671871e-02 0.0000000000000000e+00 0.0000000000000000e+00  1.1893970369252906e-02 0.0000000000000000e+00 0.0000000000000000e+00  1.2271538067013213e-02 0.0000000000000000e+00 0.0000000000000000e+00  1.2649104015119872e-02 0.0000000000000000e+00 0.0000000000000000e+00  1.3026668159740212e-02 0.0000000000000000e+00 0.0000000000000000e+00  1.3404230447041829e-02 0.0000000000000000e+00 0.0000000000000000e+00  1.3781790823192568e-02 0.0000000000000000e+00 0.0000000000000000e+00  1.4159349234360562e-02 0.0000000000000000e+00 0.0000000000000000e+00  1.4536905626714215e-02 0.0000000000000000e+00 0.0000000000000000e+00  1.4914459946422220e-02 0.0000000000000000e+00 0.0000000000000000e+00  1.5292012139653565e-02 0.0000000000000000e+00 0.0000000000000000e+00  1.5669562152577549e-02 0.0000000000000000e+00 0.0000000000000000e+00  1.6047109931363775e-02 0.0000000000000000e+00 0.0000000000000000e+00  1.6424655422182154e-02 0.0000000000000000e+00 0.0000000000000000e+00  1.6802198571202943e-02 0.0000000000000000e+00 0.0000000000000000e+00  1.7179739324596731e-02 0.0000000000000000e+00 0.0000000000000000e+00  1.7557277628534429e-02 0.0000000000000000e+00 0.0000000000000000e+00  1.7934813429187318e-02 0.0000000000000000e+00 0.0000000000000000e+00  1.8312346672727031e-02 0.0000000000000000e+00 0.0000000000000000e+00  1.8689877305325550e-02 0.0000000000000000e+00 0.0000000000000000e+00  1.9067405273155254e-02 0.0000000000000000e+00 0.0000000000000000e+00  1.9444930522388888e-02 0.0000000000000000e+00 0.0000000000000000e+00  1.9822452999199578e-02 0.0000000000000000e+00 0.0000000000000000e+00  2.0199972649760860e-02 0.0000000000000000e+00 0.0000000000000000e+00  2.0577489420246672e-02 0.0000000000000000e+00 0.0000000000000000e+00  2.0955003256831348e-02 0.0000000000000000e+00 0.0000000000000000e+00  2.1332514105689655e-02 0.0000000000000000e+00 0.0000000000000000e+00  2.1710021912996778e-02 0.0000000000000000e+00 0.0000000000000000e+00  2.2087526624928341e-02 0.0000000000000000e+00 0.0000000000000000e+00  2.2465028187660406e-02 0.0000000000000000e+00 0.0000000000000000e+00  2.2842526547369478e-02 0.0000000000000000e+00 0.0000000000000000e+00  2.3220021650232535e-02 0.0000000000000000e+00 0.0000000000000000e+00  2.3597513442427005e-02 0.0000000000000000e+00 0.0000000000000000e+00  2.3975001870130797e-02 0.0000000000000000e+00 0.0000000000000000e+00  2.4352486879522288e-02 0.0000000000000000e+00 0.0000000000000000e+00  2.4729968416780351e-02 0.0000000000000000e+00 0.0000000000000000e+00  2.5107446428084358e-02 0.0000000000000000e+00 0.0000000000000000e+00  2.5484920859614180e-02 0.0000000000000000e+00 0.0000000000000000e+00  2.5862391657550186e-02 0.0000000000000000e+00 0.0000000000000000e+00  2.6239858768073283e-02 0.0000000000000000e+00 0.0000000000000000e+00  2.6617322137364896e-02 0.0000000000000000e+00 0.0000000000000000e+00  2.6994781711606977e-02 0.0000000000000000e+00 0.0000000000000000e+00  2.7372237436982028e-02 0.0000000000000000e+00 0.0000000000000000e+00  2.7749689259673090e-02 0.0000000000000000e+00 0.0000000000000000e+00  2.8127137125863774e-02 0.0000000000000000e+00 0.0000000000000000e+00  2.8504580981738244e-02 0.0000000000000000e+00 0.0000000000000000e+00  2.8882020773481239e-02 0.0000000000000000e+00 0.0000000000000000e+00  2.9259456447278079e-02 0.0000000000000000e+00 0.0000000000000000e+00  2.9636887949314669e-02 0.0000000000000000e+00 0.0000000000000000e+00  3.0014315225777511e-02 0.0000000000000000e+00 0.0000000000000000e+00  3.0391738222853709e-02 0.0000000000000000e+00 0.0000000000000000e+00  3.0769156886730972e-02 0.0000000000000000e+00 0.0000000000000000e+00  3.1146571163597633e-02 0.0000000000000000e+00 0.0000000000000000e+00  3.1523980999642653e-02 0.0000000000000000e+00 0.0000000000000000e+00  3.1901386341055618e-02 0.0000000000000000e+00 0.0000000000000000e+00  3.2278787134026765e-02 0.0000000000000000e+00 0.0000000000000000e+00  3.2656183324746957e-02 0.0000000000000000e+00 0.0000000000000000e+00  3.3033574859407736e-02 0.0000000000000000e+00 0.0000000000000000e+00  3.3410961684201324e-02 0.0000000000000000e+00 0.0000000000000000e+00  3.3788343745320561e-02 0.0000000000000000e+00 0.0000000000000000e+00  3.4165720988959009e-02 0.0000000000000000e+00 0.0000000000000000e+00  3.4543093361310909e-02 0.0000000000000000e+00 0.0000000000000000e+00  3.4920460808571183e-02 0.0000000000000000e+00 0.0000000000000000e+00  3.5297823276935467e-02 0.0000000000000000e+00 0.0000000000000000e+00  3.5675180712600119e-02 0.0000000000000000e+00 0.0000000000000000e+00  3.6052533061762176e-02 0.0000000000000000e+00 0.0000000000000000e+00  3.6429880270619448e-02 0.0000000000000000e+00 0.0000000000000000e+00  3.6807222285370436e-02 0.0000000000000000e+00 0.0000000000000000e+00  3.7184559052214405e-02 0.0000000000000000e+00 0.0000000000000000e+00  3.7561890517351371e-02 0.0000000000000000e+00 0.0000000000000000e+00  3.7939216626982075e-02 0.0000000000000000e+00 0.0000000000000000e+00  3.8316537327308081e-02 0.0000000000000000e+00 0.0000000000000000e+00  3.8693852564531658e-02 0.0000000000000000e+00 0.0000000000000000e+00  3.9071162284855895e-02 0.0000000000000000e+00 0.0000000000000000e+00  3.9448466434484651e-02 0.0000000000000000e+00 0.0000000000000000e+00  3.9825764959622589e-02 0.0000000000000000e+00 0.0000000000000000e+00  4.0203057806475165e-02 0.0000000000000000e+00 0.0000000000000000e+00  4.0580344921248651e-02 0.0000000000000000e+00 0.0000000000000000e+00  4.0957626250150134e-02 0.0000000000000000e+00 0.0000000000000000e+00  4.1334901739387531e-02 0.0000000000000000e+00 0.0000000000000000e+00  4.1712171335169586e-02 0.0000000000000000e+00 0.0000000000000000e+00  4.2089434983705876e-02 0.0000000000000000e+00 0.0000000000000000e+00  4.2466692631206837e-02 0.0000000000000000e+00 0.0000000000000000e+00  4.2843944223883768e-02 0.0000000000000000e+00 0.0000000000000000e+00  4.3221189707948804e-02 0.0000000000000000e+00 0.0000000000000000e+00  4.3598429029614985e-02 0.0000000000000000e+00 0.0000000000000000e+00  4.3975662135096197e-02 0.0000000000000000e+00 0.0000000000000000e+00  4.4352888970607240e-02 0.0000000000000000e+00 0.0000000000000000e+00  4.4730109482363785e-02 0.0000000000000000e+00 0.0000000000000000e+00  4.5107323616582415e-02 0.0000000000000000e+00 0.0000000000000000e+00  4.5484531319480645e-02 0.0000000000000000e+00 0.0000000000000000e+00  4.5861732537276857e-02 0.0000000000000000e+00 0.0000000000000000e+00  4.6238927216190398e-02 0.0000000000000000e+00 0.0000000000000000e+00  4.6616115302441544e-02 0.0000000000000000e+00 0.0000000000000000e+00  4.6993296742251472e-02 0.0000000000000000e+00 0.0000000000000000e+00  4.7370471481842362e-02 0.0000000000000000e+00 0.0000000000000000e+00  4.7747639467437319e-02 0.0000000000000000e+00 0.0000000000000000e+00  4.8124800645260410e-02 0.0000000000000000e+00 0.0000000000000000e+00  7.2413650220011089e-02 0.0000000000000000e+00 0.0000000000000000e+00  4.8879102362492162e-02 0.0000000000000000e+00 0.0000000000000000e+00  4.9256242794353845e-02 0.0000000000000000e+00 0.0000000000000000e+00  4.9633376203349733e-02 0.0000000000000000e+00 0.0000000000000000e+00  5.0010502535708837e-02 0.0000000000000000e+00 0.0000000000000000e+00  5.0387621737661162e-02 0.0000000000000000e+00 0.0000000000000000e+00  5.0764733755437746e-02 0.0000000000000000e+00 0.0000000000000000e+00  5.1141838535270628e-02 0.0000000000000000e+00 0.0000000000000000e+00  5.1518936023392893e-02 0.0000000000000000e+00 0.0000000000000000e+00  5.1896026166038674e-02 0.0000000000000000e+00 0.0000000000000000e+00  5.2273108909443131e-02 0.0000000000000000e+00 0.0000000000000000e+00  5.2650184199842506e-02 0.0000000000000000e+00 0.0000000000000000e+00  5.3027251983474077e-02 0.0000000000000000e+00 0.0000000000000000e+00  5.3404312206576203e-02 0.0000000000000000e+00 0.0000000000000000e+00  5.3781364815388324e-02 0.0000000000000000e+00 0.0000000000000000e+00  5.4158409756150966e-02 0.0000000000000000e+00 0.0000000000000000e+00  5.4535446975105734e-02 0.0000000000000000e+00 0.0000000000000000e+00  5.4912476418495351e-02 0.0000000000000000e+00 0.0000000000000000e+00  5.5289498032563639e-02 0.0000000000000000e+00 0.0000000000000000e+00  5.5666511763555554e-02 0.0000000000000000e+00 0.0000000000000000e+00  5.6043517557717151e-02 0.0000000000000000e+00 0.0000000000000000e+00  5.6420515361295623e-02 0.0000000000000000e+00 0.0000000000000000e+00  5.6797505120539313e-02 0.0000000000000000e+00 0.0000000000000000e+00  5.7174486781697696e-02 0.0000000000000000e+00 0.0000000000000000e+00  5.7551460291021428e-02 0.0000000000000000e+00 0.0000000000000000e+00  5.7928425594762294e-02 0.0000000000000000e+00 0.0000000000000000e+00  5.8305382639173273e-02 0.0000000000000000e+00 0.0000000000000000e+00  5.8682331370508503e-02 0.0000000000000000e+00 0.0000000000000000e+00  5.9059271735023330e-02 0.0000000000000000e+00 0.0000000000000000e+00  5.9436203678974273e-02 0.0000000000000000e+00 0.0000000000000000e+00  5.9813127148619062e-02 0.0000000000000000e+00 0.0000000000000000e+00  6.0190042090216625e-02 0.0000000000000000e+00 0.0000000000000000e+00  6.0566948450027122e-02 0.0000000000000000e+00 0.0000000000000000e+00  6.0943846174311929e-02 0.0000000000000000e+00 0.0000000000000000e+00  6.1320735209333642e-02 0.0000000000000000e+00 0.0000000000000000e+00  6.1697615501356107e-02 0.0000000000000000e+00 0.0000000000000000e+00  6.2074486996644418e-02 0.0000000000000000e+00 0.0000000000000000e+00  6.2451349641464926e-02 0.0000000000000000e+00 0.0000000000000000e+00  6.2828203382085224e-02 0.0000000000000000e+00 0.0000000000000000e+00  6.3205048164774208e-02 0.0000000000000000e+00 0.0000000000000000e+00  6.3581883935802025e-02 0.0000000000000000e+00 0.0000000000000000e+00  6.3958710641440111e-02 0.0000000000000000e+00 0.0000000000000000e+00  6.4335528227961195e-02 0.0000000000000000e+00 0.0000000000000000e+00  6.4712336641639306e-02 0.0000000000000000e+00 0.0000000000000000e+00  6.5089135828749797e-02 0.0000000000000000e+00 0.0000000000000000e+00  6.5465925735569308e-02 0.0000000000000000e+00 0.0000000000000000e+00  6.5842706308375826e-02 0.0000000000000000e+00 0.0000000000000000e+00  6.6219477493448670e-02 0.0000000000000000e+00 0.0000000000000000e+00  6.6596239237068477e-02 0.0000000000000000e+00 0.0000000000000000e+00  6.6972991485517233e-02 0.0000000000000000e+00 0.0000000000000000e+00  6.7349734185078308e-02 0.0000000000000000e+00 0.0000000000000000e+00  6.7726467282036379e-02 0.0000000000000000e+00 0.0000000000000000e+00  6.8103190722677537e-02 0.0000000000000000e+00 0.0000000000000000e+00  6.8479904453289248e-02 0.0000000000000000e+00 0.0000000000000000e+00  6.8856608420160351e-02 0.0000000000000000e+00 0.0000000000000000e+00  6.9233302569581059e-02 0.0000000000000000e+00 0.0000000000000000e+00  6.9609986847843017e-02 0.0000000000000000e+00 0.0000000000000000e+00  6.9986661201239253e-02 0.0000000000000000e+00 0.0000000000000000e+00  7.0363325576064228e-02 0.0000000000000000e+00 0.0000000000000000e+00  7.0739979918613832e-02 0.0000000000000000e+00 0.0000000000000000e+00  7.1116624175185356e-02 0.0000000000000000e+00 0.0000000000000000e+00  7.1493258292077561e-02 0.0000000000000000e+00 0.0000000000000000e+00  7.1869882215590597e-02 0.0000000000000000e+00 0.0000000000000000e+00  7.2246495892026169e-02 0.0000000000000000e+00 0.0000000000000000e+00  7.2623099267687313e-02 0.0000000000000000e+00 0.0000000000000000e+00  7.2999692288878648e-02 0.0000000000000000e+00 0.0000000000000000e+00  7.3376274901906235e-02 0.0000000000000000e+00 0.0000000000000000e+00  7.3752847053077566e-02 0.0000000000000000e+00 0.0000000000000000e+00  7.4129408688701687e-02 0.0000000000000000e+00 0.0000000000000000e+00  7.4505959755089127e-02 0.0000000000000000e+00 0.0000000000000000e+00  7.4882500198551916e-02 0.0000000000000000e+00 0.0000000000000000e+00  7.5259029965403568e-02 0.0000000000000000e+00 0.0000000000000000e+00  7.5635549001959207e-02 0.0000000000000000e+00 0.0000000000000000e+00  7.6012057254535415e-02 0.0000000000000000e+00 0.0000000000000000e+00  7.6388554669450298e-02 0.0000000000000000e+00 0.0000000000000000e+00  7.6765041193023575e-02 0.0000000000000000e+00 0.0000000000000000e+00  7.7141516771576449e-02 0.0000000000000000e+00 0.0000000000000000e+00  7.7517981351431731e-02 0.0000000000000000e+00 0.0000000000000000e+00  7.7894434878913787e-02 0.0000000000000000e+00 0.0000000000000000e+00  7.8270877300348540e-02 0.0000000000000000e+00 0.0000000000000000e+00  7.8647308562063534e-02 0.0000000000000000e+00 0.0000000000000000e+00  7.9023728610387867e-02 0.0000000000000000e+00 0.0000000000000000e+00  7.9400137391652248e-02 0.0000000000000000e+00 0.0000000000000000e+00  7.9776534852188996e-02 0.0000000000000000e+00 0.0000000000000000e+00  8.0152920938332040e-02 0.0000000000000000e+00 0.0000000000000000e+00  8.0529295596416972e-02 0.0000000000000000e+00 0.0000000000000000e+00  8.0905658772780942e-02 0.0000000000000000e+00 0.0000000000000000e+00  8.1282010413762762e-02 0.0000000000000000e+00 0.0000000000000000e+00  8.1658350465702911e-02 0.0000000000000000e+00 0.0000000000000000e+00  8.2034678874943506e-02 0.0000000000000000e+00 0.0000000000000000e+00  8.2410995587828328e-02 0.0000000000000000e+00 0.0000000000000000e+00  8.2787300550702825e-02 0.0000000000000000e+00 0.0000000000000000e+00  8.3163593709914108e-02 0.0000000000000000e+00 0.0000000000000000e+00  8.3539875011810996e-02 0.0000000000000000e+00 0.0000000000000000e+00  8.3916144402743961e-02 0.0000000000000000e+00 0.0000000000000000e+00  8.4292401829065194e-02 0.0000000000000000e+00 0.0000000000000000e+00  8.4668647237128622e-02 0.0000000000000000e+00 0.0000000000000000e+00  8.5044880573289849e-02 0.0000000000000000e+00 0.0000000000000000e+00  8.5421101783906189e-02 0.0000000000000000e+00 0.0000000000000000e+00  8.5797310815336716e-02 0.0000000000000000e+00 0.0000000000000000e+00  8.6173507613942227e-02 0.0000000000000000e+00 0.0000000000000000e+00  8.6549692126085265e-02 0.0000000000000000e+00 0.0000000000000000e+00  8.6925864298130123e-02 0.0000000000000000e+00 0.0000000000000000e+00  8.7302024076442858e-02 0.0000000000000000e+00 0.0000000000000000e+00  8.7678171407391287e-02 0.0000000000000000e+00 0.0000000000000000e+00  8.8054306237345017e-02 0.0000000000000000e+00 0.0000000000000000e+00  8.8430428512675407e-02 0.0000000000000000e+00 0.0000000000000000e+00  8.8806538179755645e-02 0.0000000000000000e+00 0.0000000000000000e+00  8.9182635184960668e-02 0.0000000000000000e+00 0.0000000000000000e+00  8.9558719474667259e-02 0.0000000000000000e+00 0.0000000000000000e+00  8.9934790995254033e-02 0.0000000000000000e+00 0.0000000000000000e+00  9.0310849693101353e-02 0.0000000000000000e+00 0.0000000000000000e+00  9.0686895514591470e-02 0.0000000000000000e+00 0.0000000000000000e+00  9.1062928406108440e-02 0.0000000000000000e+00 0.0000000000000000e+00  9.1438948314038204e-02 0.0000000000000000e+00 0.0000000000000000e+00  9.1814955184768510e-02 0.0000000000000000e+00 0.0000000000000000e+00  9.2190948964688962e-02 0.0000000000000000e+00 0.0000000000000000e+00  9.2566929600191070e-02 0.0000000000000000e+00 0.0000000000000000e+00  9.2942897037668198e-02 0.0000000000000000e+00 0.0000000000000000e+00  9.3318851223515575e-02 0.0000000000000000e+00 0.0000000000000000e+00  9.3694792104130342e-02 0.0000000000000000e+00 0.0000000000000000e+00  9.4070719625911514e-02 0.0000000000000000e+00 0.0000000000000000e+00  9.4446633735260049e-02 0.0000000000000000e+00 0.0000000000000000e+00  9.4822534378578793e-02 0.0000000000000000e+00 0.0000000000000000e+00  9.5198421502272534e-02 0.0000000000000000e+00 0.0000000000000000e+00  9.5574295052747921e-02 0.0000000000000000e+00 0.0000000000000000e+00  9.5950154976413599e-02 0.0000000000000000e+00 0.0000000000000000e+00  9.6326001219680157e-02 0.0000000000000000e+00 0.0000000000000000e+00  9.6701833728960129e-02 0.0000000000000000e+00 0.0000000000000000e+00  1.2087620937008847e-01 0.0000000000000000e+00 0.0000000000000000e+00  9.7453457331220128e-02 0.0000000000000000e+00 0.0000000000000000e+00  9.7829248317035031e-02 0.0000000000000000e+00 0.0000000000000000e+00  9.8205025354533099e-02 0.0000000000000000e+00 0.0000000000000000e+00  9.8580788390136689e-02 0.0000000000000000e+00 0.0000000000000000e+00  9.8956537370270214e-02 0.0000000000000000e+00 0.0000000000000000e+00  9.9332272241360070e-02 0.0000000000000000e+00 0.0000000000000000e+00  9.9707992949834651e-02 0.0000000000000000e+00 0.0000000000000000e+00  1.0008369944212436e-01 0.0000000000000000e+00 0.0000000000000000e+00  1.0045939166466170e-01 0.0000000000000000e+00 0.0000000000000000e+00  1.0083506956388109e-01 0.0000000000000000e+00 0.0000000000000000e+00  1.0121073308621911e-01 0.0000000000000000e+00 0.0000000000000000e+00  1.0158638217811430e-01 0.0000000000000000e+00 0.0000000000000000e+00  1.0196201678600730e-01 0.0000000000000000e+00 0.0000000000000000e+00  1.0233763685634084e-01 0.0000000000000000e+00 0.0000000000000000e+00  1.0271324233555965e-01 0.0000000000000000e+00 0.0000000000000000e+00  1.0308883317011060e-01 0.0000000000000000e+00 0.0000000000000000e+00  1.0346440930644263e-01 0.0000000000000000e+00 0.0000000000000000e+00  1.0383997069100677e-01 0.0000000000000000e+00 0.0000000000000000e+00  1.0421551727025616e-01 0.0000000000000000e+00 0.0000000000000000e+00  1.0459104899064606e-01 0.0000000000000000e+00 0.0000000000000000e+00  1.0496656579863382e-01 0.0000000000000000e+00 0.0000000000000000e+00  1.0534206764067895e-01 0.0000000000000000e+00 0.0000000000000000e+00  1.0571755446324307e-01 0.0000000000000000e+00 0.0000000000000000e+00  1.0609302621278997e-01 0.0000000000000000e+00 0.0000000000000000e+00  1.0646848283578554e-01 0.0000000000000000e+00 0.0000000000000000e+00  1.0684392427869788e-01 0.0000000000000000e+00 0.0000000000000000e+00  1.07219350