<?xml version="1.0"?>
<VTKFile type="UnstructuredGrid"  version="0.1"  >
<UnstructuredGrid>
<Piece  NumberOfPoints="81" NumberOfCells="128">
<Points>
<DataArray  type="Float64"  NumberOfComponents="3"  format="ascii">0 0 0  0.125 0 0  0.25 0 0  0.375 0 0  0.5 0 0  0.625 0 0  0.75 0 0  0.875 0 0  1 0 0  0 0.1875 0  0.125 0.1875 0  0.25 0.1875 0  0.375 0.1875 0  0.5 0.1875 0  0.625 0.1875 0  0.75 0.1875 0  0.875 0.1875 0  1 0.1875 0  0 0.375 0  0.125 0.375 0  0.25 0.375 0  0.375 0.375 0  0.5 0.375 0  0.625 0.375 0  0.75 0.375 0  0.875 0.375 0  1 0.375 0  0 0.5625 0  0.125 0.5625 0  0.25 0.5625 0  0.375 0.5625 0  0.5 0.5625 0  0.625 0.5625 0  0.75 0.5625 0  0.875 0.5625 0  1 0.5625 0  0 0.75 0  0.125 0.75 0  0.25 0.75 0  0.375 0.75 0  0.5 0.75 0  0.625 0.75 0  0.75 0.75 0  0.875 0.75 0  1 0.75 0  0 0.9375 0  0.125 0.9375 0  0.25 0.9375 0  0.375 0.9375 0  0.5 0.9375 0  0.625 0.9375 0  0.75 0.9375 0  0.875 0.9375 0  1 0.9375 0  0 1.125 0  0.125 1.125 0  0.25 1.125 0  0.375 1.125 0  0.5 1.125 0  0.625 1.125 0  0.75 1.125 0  0.875 1.125 0  1 1.125 0  0 1.3125 0  0.125 1.3125 0  0.25 1.3125 0  0.375 1.3125 0  0.5 1.3125 0  0.625 1.3125 0  0.75 1.3125 0  0.875 1.3125 0  1 1.3125 0  0 1.5 0  0.125 1.5 0  0.25 1.5 0  0.375 1.5 0  0.5 1.5 0  0.625 1.5 0  0.75 1.5 0  0.875 1.5 0  1 1.5 0  </DataArray>
</Points>
<Cells>
<DataArray  type="UInt32"  Name="connectivity"  format="ascii">0 1 9  1 9 10  1 2 10  2 10 11  2 3 11  3 11 12  3 4 12  4 12 13  4 5 13  5 13 14  5 6 14  6 14 15  6 7 15  7 15 16  7 8 16  8 16 17  9 10 18  10 18 19  10 11 19  11 19 20  11 12 20  12 20 21  12 13 21  13 21 22  13 14 22  14 22 23  14 15 23  15 23 24  15 16 24  16 24 25  16 17 25  17 25 26  18 19 27  19 27 28  19 20 28  20 28 29  20 21 29  21 29 30  21 22 30  22 30 31  22 23 31  23 31 32  23 24 32  24 32 33  24 25 33  25 33 34  25 26 34  26 34 35  27 28 36  28 36 37  28 29 37  29 37 38  29 30 38  30 38 39  30 31 39  31 39 40  31 32 40  32 40 41  32 33 41  33 41 42  33 34 42  34 42 43  34 35 43  35 43 44  36 37 45  37 45 46  37 38 46  38 46 47  38 39 47  39 47 48  39 40 48  40 48 49  40 41 49  41 49 50  41 42 50  42 50 51  42 43 51  43 51 52  43 44 52  44 52 53  45 46 54  46 54 55  46 47 55  47 55 56  47 48 56  48 56 57  48 49 57  49 57 58  49 50 58  50 58 59  50 51 59  51 59 60  51 52 60  52 60 61  52 53 61  53 61 62  54 55 63  55 63 64  55 56 64  56 64 65  56 57 65  57 65 66  57 58 66  58 66 67  58 59 67  59 67 68  59 60 68  60 68 69  60 61 69  61 69 70  61 62 70  62 70 71  63 64 72  64 72 73  64 65 73  65 73 74  65 66 74  66 74 75  66 67 75  67 75 76  67 68 76  68 76 77  68 69 77  69 77 78  69 70 78  70 78 79  70 71 79  71 79 80  </DataArray>
<DataArray  type="UInt32"  Name="offsets"  format="ascii">3 6 9 12 15 18 21 24 27 30 33 36 39 42 45 48 51 54 57 60 63 66 69 72 75 78 81 84 87 90 93 96 99 102 105 108 111 114 117 120 123 126 129 132 135 138 141 144 147 150 153 156 159 162 165 168 171 174 177 180 183 186 189 192 195 198 201 204 207 210 213 216 219 222 225 228 231 234 237 240 243 246 249 252 255 258 261 264 267 270 273 276 279 282 285 288 291 294 297 300 303 306 309 312 315 318 321 324 327 330 333 336 339 342 345 348 351 354 357 360 363 366 369 372 375 378 381 384 </DataArray>
<DataArray  type="UInt8"  Name="types"  format="ascii">5 5 5 5 5 5 5 5 5 5 5 5 5 5 5 5 5 5 5 5 5 5 5 5 5 5 5 5 5 5 5 5 5 5 5 5 5 5 5 5 5 5 5 5 5 5 5 5 5 5 5 5 5 5 5 5 5 5 5 5 5 5 5 5 5 5 5 5 5 5 5 5 5 5 5 5 5 5 5 5 5 5 5 5 5 5 5 5 5 5 5 5 5 5 5 5 5 5 5 5 5 5 5 5 5 5 5 5 5 5 5 5 5 5 5 5 5 5 5 5 5 5 5 5 5 5 5 5 </DataArray>
</Cells>
<PointData  Vectors="f_129"> 
<DataArray  type="Float64"  Name="f_129"  NumberOfComponents="3" format="ascii">3.9229547863922472e-02 0.0000000000000000e+00 0.0000000000000000e+00  1.1744678038403791e-01 0.0000000000000000e+00 0.0000000000000000e+00  1.9493991444806813e-01 0.0000000000000000e+00 0.0000000000000000e+00  2.7123117911542638e-01 0.0000000000000000e+00 0.0000000000000000e+00  3.4585021337001859e-01 0.0000000000000000e+00 0.0000000000000000e+00  4.1833696605231829e-01 0.0000000000000000e+00 0.0000000000000000e+00  4.8824453222774777e-01 0.0000000000000000e+00 0.0000000000000000e+00  5.5514190850421097e-01 0.0000000000000000e+00 0.0000000000000000e+00  7.6942088429381328e-01 0.0000000000000000e+00 0.0000000000000000e+00  6.7827741475836556e-01 0.0000000000000000e+00 0.0000000000000000e+00  7.3375637339328925e-01 0.0000000000000000e+00 0.0000000000000000e+00  7.8471147998748925e-01 0.0000000000000000e+00 0.0000000000000000e+00  8.3082857936451981e-01 0.0000000000000000e+00 0.0000000000000000e+00  8.7182334427122998e-01 0.0000000000000000e+00 0.0000000000000000e+00  9.0744302834982726e-01 0.0000000000000000e+00 0.0000000000000000e+00  9.3746802440322008e-01 0.0000000000000000e+00 0.0000000000000000e+00  9.6171321834641499e-01 0.0000000000000000e+00 0.0000000000000000e+00  9.4812472645448165e-01 0.0000000000000000e+00 0.0000000000000000e+00  9.9230283716413292e-01 0.0000000000000000e+00 0.0000000000000000e+00  9.9845866686656404e-01 0.0000000000000000e+00 0.0000000000000000e+00  9.9845866686656404e-01 0.0000000000000000e+00 0.0000000000000000e+00  9.9230283716413292e-01 0.0000000000000000e+00 0.0000000000000000e+00  9.8002913049640727e-01 0.0000000000000000e+00 0.0000000000000000e+00  9.6171321834641521e-01 0.0000000000000000e+00 0.0000000000000000e+00  9.3746802440322019e-01 0.0000000000000000e+00 0.0000000000000000e+00  9.0744302834982737e-01 0.0000000000000000e+00 0.0000000000000000e+00  6.7249851196395738e-01 0.0000000000000000e+00 0.0000000000000000e+00  8.3082857936451981e-01 0.0000000000000000e+00 0.0000000000000000e+00  7.8471147998748925e-01 0.0000000000000000e+00 0.0000000000000000e+00  7.3375637339328925e-01 0.0000000000000000e+00 0.0000000000000000e+00  6.7827741475836567e-01 0.0000000000000000e+00 0.0000000000000000e+00  6.1861665031132851e-01 0.0000000000000000e+00 0.0000000000000000e+00  5.5514190850421108e-01 0.0000000000000000e+00 0.0000000000000000e+00  4.8824453222774788e-01 0.0000000000000000e+00 0.0000000000000000e+00  4.1833696605231840e-01 0.0000000000000000e+00 0.0000000000000000e+00  7.4619034254592306e-02 0.0000000000000000e+00 0.0000000000000000e+00  2.7123117911542649e-01 0.0000000000000000e+00 0.0000000000000000e+00  1.9493991444806824e-01 0.0000000000000000e+00 0.0000000000000000e+00  1.1744678038403802e-01 0.0000000000000000e+00 0.0000000000000000e+00  3.9229547863922597e-02 0.0000000000000000e+00 0.0000000000000000e+00  -3.9229547863922347e-02 0.0000000000000000e+00 0.0000000000000000e+00  -1.1744678038403777e-01 0.0000000000000000e+00 0.0000000000000000e+00  -1.9493991444806802e-01 0.0000000000000000e+00 0.0000000000000000e+00  -2.7123117911542627e-01 0.0000000000000000e+00 0.0000000000000000e+00  -5.5901699437494734e-01 0.0000000000000000e+00 0.0000000000000000e+00  -4.1833696605231818e-01 0.0000000000000000e+00 0.0000000000000000e+00  -4.8824453222774766e-01 0.0000000000000000e+00 0.0000000000000000e+00  -5.5514190850421086e-01 0.0000000000000000e+00 0.0000000000000000e+00  -6.1861665031132829e-01 0.0000000000000000e+00 0.0000000000000000e+00  -6.7827741475836545e-01 0.0000000000000000e+00 0.0000000000000000e+00  -7.3375637339328903e-01 0.0000000000000000e+00 0.0000000000000000e+00  -7.8471147998748902e-01 0.0000000000000000e+00 0.0000000000000000e+00  -8.3082857936451981e-01 0.0000000000000000e+00 0.0000000000000000e+00  -9.2477874904361013e-01 0.0000000000000000e+00 0.0000000000000000e+00  -9.0744302834982715e-01 0.0000000000000000e+00 0.0000000000000000e+00  -9.3746802440322008e-01 0.0000000000000000e+00 0.0000000000000000e+00  -9.6171321834641510e-01 0.0000000000000000e+00 0.0000000000000000e+00  -9.8002913049640716e-01 0.0000000000000000e+00 0.0000000000000000e+00  -9.9230283716413281e-01 0.0000000000000000e+00 0.0000000000000000e+00  -9.9845866686656404e-01 0.0000000000000000e+00 0.0000000000000000e+00  -9.9845866686656404e-01 0.0000000000000000e+00 0.0000000000000000e+00  -9.9230283716413292e-01 0.0000000000000000e+00 0.0000000000000000e+00  -8.4739756089084273e-01 0.0000000000000000e+00 0.0000000000000000e+00  -9.6171321834641521e-01 0.0000000000000000e+00 0.0000000000000000e+00  -9.3746802440322008e-01 0.0000000000000000e+00 0.0000000000000000e+00  -9.0744302834982726e-01 0.0000000000000000e+00 0.0000000000000000e+00  -8.7182334427123021e-01 0.0000000000000000e+00 0.0000000000000000e+00  -8.3082857936452004e-01 0.0000000000000000e+00 0.0000000000000000e+00  -7.8471147998748925e-01 0.0000000000000000e+00 0.0000000000000000e+00  -7.3375637339328925e-01 0.0000000000000000e+00 0.0000000000000000e+00  -6.7827741475836589e-01 0.0000000000000000e+00 0.0000000000000000e+00  -3.6395357202901490e-01 0.0000000000000000e+00 0.0000000000000000e+00  -5.5514190850421108e-01 1.4285265052640161e-01 0.0000000000000000e+00  -4.8824453222774783e-01 1.5662967759057989e-01 0.0000000000000000e+00  -4.1833696605231868e-01 1.6944103060775922e-01 0.0000000000000000e+00  -3.4585021337001898e-01 1.8120772332638163e-01 0.0000000000000000e+00  -2.7123117911542638e-01 1.9185721017301410e-01 0.0000000000000000e+00  -1.9493991444806813e-01 2.0132383351993324e-01 0.0000000000000000e+00  -1.1744678038403836e-01 2.0954922848623400e-01 0.0000000000000000e+00  -3.9229547863922937e-02 2.1648268277672797e-01 0.0000000000000000e+00  -3.9229547863922937e-02 0.0000000000000000e+00 0.0000000000000000e+00  </DataArray> 
</PointData> 
</Piece>
</UnstructuredGrid>
</VTKFile>