<?xml version="1.0"?>
<VTKFile type="UnstructuredGrid"  version="0.1"  >
<UnstructuredGrid>
<Piece  NumberOfPoints="25" NumberOfCells="32">
<Points>
<DataArray  type="Float64"  NumberOfComponents="3"  format="ascii">0 0 0  0.25 0 0  0.5 0 0  0.75 0 0  1 0 0  0 0.375 0  0.25 0.375 0  0.5 0.375 0  0.75 0.375 0  1 0.375 0  0 0.75 0  0.25 0.75 0  0.5 0.75 0  0.75 0.75 0  1 0.75 0  0 1.125 0  0.25 1.125 0  0.5 1.125 0  0.75 1.125 0  1 1.125 0  0 1.5 0  0.25 1.5 0  0.5 1.5 0  0.75 1.5 0  1 1.5 0  </DataArray>
</Points>
<Cells>
<DataArray  type="UInt32"  Name="connectivity"  format="ascii">0 1 5  1 5 6  1 2 6  2 6 7  2 3 7  3 7 8  3 4 8  4 8 9  5 6 10  6 10 11  6 7 11  7 11 12  7 8 12  8 12 13  8 9 13  9 13 14  10 11 15  11 15 16  11 12 16  12 16 17  12 13 17  13 17 18  13 14 18  14 18 19  15 16 20  16 20 21  16 17 21  17 21 22  17 18 22  18 22 23  18 19 23  19 23 24  </DataArray>
<DataArray  type="UInt32"  Name="offsets"  format="ascii">3 6 9 12 15 18 21 24 27 30 33 36 39 42 45 48 51 54 57 60 63 66 69 72 75 78 81 84 87 90 93 96 </DataArray>
<DataArray  type="UInt8"  Name="types"  format="ascii">5 5 5 5 5 5 5 5 5 5 5 5 5 5 5 5 5 5 5 5 5 5 5 5 5 5 5 5 5 5 5 5 </DataArray>
</Cells>
<PointData  Vectors="f_71"> 
<DataArray  type="Float64"  Name="f_71"  NumberOfComponents="3" format="ascii">1.2940952255126037e-01 0.0000000000000000e+00 0.0000000000000000e+00  3.7940952255126037e-01 0.0000000000000000e+00 0.0000000000000000e+00  6.0355339059327373e-01 0.0000000000000000e+00 0.0000000000000000e+00  7.8656609248549303e-01 0.0000000000000000e+00 0.0000000000000000e+00  8.6602540378443860e-01 0.0000000000000000e+00 0.0000000000000000e+00  9.8296291314453410e-01 0.0000000000000000e+00 0.0000000000000000e+00  9.8296291314453410e-01 0.0000000000000000e+00 0.0000000000000000e+00  9.1597561503675351e-01 0.0000000000000000e+00 0.0000000000000000e+00  7.8656609248549314e-01 0.0000000000000000e+00 0.0000000000000000e+00  2.2414386804201361e-01 0.0000000000000000e+00 0.0000000000000000e+00  3.7940952255126070e-01 0.0000000000000000e+00 0.0000000000000000e+00  1.2940952255126056e-01 0.0000000000000000e+00 0.0000000000000000e+00  -1.2940952255126012e-01 0.0000000000000000e+00 0.0000000000000000e+00  -3.7940952255126004e-01 0.0000000000000000e+00 0.0000000000000000e+00  -7.4999999999999989e-01 0.0000000000000000e+00 0.0000000000000000e+00  -7.8656609248549270e-01 0.0000000000000000e+00 0.0000000000000000e+00  -9.1597561503675329e-01 0.0000000000000000e+00 0.0000000000000000e+00  -9.8296291314453410e-01 0.0000000000000000e+00 0.0000000000000000e+00  -9.8296291314453421e-01 0.0000000000000000e+00 0.0000000000000000e+00  -6.1237243569579503e-01 0.0000000000000000e+00 0.0000000000000000e+00  -7.8656609248549336e-01 5.2972874199296860e-02 0.0000000000000000e+00  -6.0355339059327406e-01 1.5530860876302249e-01 0.0000000000000000e+00  -3.7940952255126104e-01 2.4706031829915942e-01 0.0000000000000000e+00  -1.2940952255126090e-01 3.2197527542968940e-01 0.0000000000000000e+00  -1.2940952255126090e-01 0.0000000000000000e+00 0.0000000000000000e+00  </DataArray> 
</PointData> 
</Piece>
</UnstructuredGrid>
</VTKFile>