<?xml version="1.0"?>
<VTKFile type="UnstructuredGrid"  version="0.1"  >
<UnstructuredGrid>
<Piece  NumberOfPoints="9" NumberOfCells="8">
<Points>
<DataArray  type="Float64"  NumberOfComponents="3"  format="ascii">0 0 0  0.5 0 0  1 0 0  0 0.75 0  0.5 0.75 0  1 0.75 0  0 1.5 0  0.5 1.5 0  1 1.5 0  </DataArray>
</Points>
<Cells>
<DataArray  type="UInt32"  Name="connectivity"  format="ascii">0 1 3  1 3 4  1 2 4  2 4 5  3 4 6  4 6 7  4 5 7  5 7 8  </DataArray>
<DataArray  type="UInt32"  Name="offsets"  format="ascii">3 6 9 12 15 18 21 24 </DataArray>
<DataArray  type="UInt8"  Name="types"  format="ascii">5 5 5 5 5 5 5 5 </DataArray>
</Cells>
<PointData  Vectors="f_15"> 
<DataArray  type="Float64"  Name="f_15"  NumberOfComponents="3" format="ascii">0.0000000000000000e+00 3.5355339059327379e-01 0.0000000000000000e+00  0.0000000000000000e+00 3.5355339059327379e-01 0.0000000000000000e+00  -5.3033008588991071e-01 1.4644660940672627e-01 0.0000000000000000e+00  0.0000000000000000e+00 -1.4644660940672619e-01 0.0000000000000000e+00  0.0000000000000000e+00 -3.5355339059327373e-01 0.0000000000000000e+00  5.3033008588991060e-01 -3.5355339059327384e-01 0.0000000000000000e+00  0.0000000000000000e+00 -4.9999999999999989e-01 0.0000000000000000e+00  0.0000000000000000e+00 -7.0710678118654757e-01 0.0000000000000000e+00  0.0000000000000000e+00 -3.5355339059327384e-01 0.0000000000000000e+00  </DataArray> 
</PointData> 
</Piece>
</UnstructuredGrid>
</VTKFile>