<?xml version="1.0"?>
<VTKFile type="UnstructuredGrid"  version="0.1"  >
<UnstructuredGrid>
<Piece  NumberOfPoints="289" NumberOfCells="512">
<Points>
<DataArray  type="Float64"  NumberOfComponents="3"  format="ascii">0 0 0  0.0625 0 0  0.125 0 0  0.1875 0 0  0.25 0 0  0.3125 0 0  0.375 0 0  0.4375 0 0  0.5 0 0  0.5625 0 0  0.625 0 0  0.6875 0 0  0.75 0 0  0.8125 0 0  0.875 0 0  0.9375 0 0  1 0 0  0 0.09375 0  0.0625 0.09375 0  0.125 0.09375 0  0.1875 0.09375 0  0.25 0.09375 0  0.3125 0.09375 0  0.375 0.09375 0  0.4375 0.09375 0  0.5 0.09375 0  0.5625 0.09375 0  0.625 0.09375 0  0.6875 0.09375 0  0.75 0.09375 0  0.8125 0.09375 0  0.875 0.09375 0  0.9375 0.09375 0  1 0.09375 0  0 0.1875 0  0.0625 0.1875 0  0.125 0.1875 0  0.1875 0.1875 0  0.25 0.1875 0  0.3125 0.1875 0  0.375 0.1875 0  0.4375 0.1875 0  0.5 0.1875 0  0.5625 0.1875 0  0.625 0.1875 0  0.6875 0.1875 0  0.75 0.1875 0  0.8125 0.1875 0  0.875 0.1875 0  0.9375 0.1875 0  1 0.1875 0  0 0.28125 0  0.0625 0.28125 0  0.125 0.28125 0  0.1875 0.28125 0  0.25 0.28125 0  0.3125 0.28125 0  0.375 0.28125 0  0.4375 0.28125 0  0.5 0.28125 0  0.5625 0.28125 0  0.625 0.28125 0  0.6875 0.28125 0  0.75 0.28125 0  0.8125 0.28125 0  0.875 0.28125 0  0.9375 0.28125 0  1 0.28125 0  0 0.375 0  0.0625 0.375 0  0.125 0.375 0  0.1875 0.375 0  0.25 0.375 0  0.3125 0.375 0  0.375 0.375 0  0.4375 0.375 0  0.5 0.375 0  0.5625 0.375 0  0.625 0.375 0  0.6875 0.375 0  0.75 0.375 0  0.8125 0.375 0  0.875 0.375 0  0.9375 0.375 0  1 0.375 0  0 0.46875 0  0.0625 0.46875 0  0.125 0.46875 0  0.1875 0.46875 0  0.25 0.46875 0  0.3125 0.46875 0  0.375 0.46875 0  0.4375 0.46875 0  0.5 0.46875 0  0.5625 0.46875 0  0.625 0.46875 0  0.6875 0.46875 0  0.75 0.46875 0  0.8125 0.46875 0  0.875 0.46875 0  0.9375 0.46875 0  1 0.46875 0  0 0.5625 0  0.0625 0.5625 0  0.125 0.5625 0  0.1875 0.5625 0  0.25 0.5625 0  0.3125 0.5625 0  0.375 0.5625 0  0.4375 0.5625 0  0.5 0.5625 0  0.5625 0.5625 0  0.625 0.5625 0  0.6875 0.5625 0  0.75 0.5625 0  0.8125 0.5625 0  0.875 0.5625 0  0.9375 0.5625 0  1 0.5625 0  0 0.65625 0  0.0625 0.65625 0  0.125 0.65625 0  0.1875 0.65625 0  0.25 0.65625 0  0.3125 0.65625 0  0.375 0.65625 0  0.4375 0.65625 0  0.5 0.65625 0  0.5625 0.65625 0  0.625 0.65625 0  0.6875 0.65625 0  0.75 0.65625 0  0.8125 0.65625 0  0.875 0.65625 0  0.9375 0.65625 0  1 0.65625 0  0 0.75 0  0.0625 0.75 0  0.125 0.75 0  0.1875 0.75 0  0.25 0.75 0  0.3125 0.75 0  0.375 0.75 0  0.4375 0.75 0  0.5 0.75 0  0.5625 0.75 0  0.625 0.75 0  0.6875 0.75 0  0.75 0.75 0  0.8125 0.75 0  0.875 0.75 0  0.9375 0.75 0  1 0.75 0  0 0.84375 0  0.0625 0.84375 0  0.125 0.84375 0  0.1875 0.84375 0  0.25 0.84375 0  0.3125 0.84375 0  0.375 0.84375 0  0.4375 0.84375 0  0.5 0.84375 0  0.5625 0.84375 0  0.625 0.84375 0  0.6875 0.84375 0  0.75 0.84375 0  0.8125 0.84375 0  0.875 0.84375 0  0.9375 0.84375 0  1 0.84375 0  0 0.9375 0  0.0625 0.9375 0  0.125 0.9375 0  0.1875 0.9375 0  0.25 0.9375 0  0.3125 0.9375 0  0.375 0.9375 0  0.4375 0.9375 0  0.5 0.9375 0  0.5625 0.9375 0  0.625 0.9375 0  0.6875 0.9375 0  0.75 0.9375 0  0.8125 0.9375 0  0.875 0.9375 0  0.9375 0.9375 0  1 0.9375 0  0 1.03125 0  0.0625 1.03125 0  0.125 1.03125 0  0.1875 1.03125 0  0.25 1.03125 0  0.3125 1.03125 0  0.375 1.03125 0  0.4375 1.03125 0  0.5 1.03125 0  0.5625 1.03125 0  0.625 1.03125 0  0.6875 1.03125 0  0.75 1.03125 0  0.8125 1.03125 0  0.875 1.03125 0  0.9375 1.03125 0  1 1.03125 0  0 1.125 0  0.0625 1.125 0  0.125 1.125 0  0.1875 1.125 0  0.25 1.125 0  0.3125 1.125 0  0.375 1.125 0  0.4375 1.125 0  0.5 1.125 0  0.5625 1.125 0  0.625 1.125 0  0.6875 1.125 0  0.75 1.125 0  0.8125 1.125 0  0.875 1.125 0  0.9375 1.125 0  1 1.125 0  0 1.21875 0  0.0625 1.21875 0  0.125 1.21875 0  0.1875 1.21875 0  0.25 1.21875 0  0.3125 1.21875 0  0.375 1.21875 0  0.4375 1.21875 0  0.5 1.21875 0  0.5625 1.21875 0  0.625 1.21875 0  0.6875 1.21875 0  0.75 1.21875 0  0.8125 1.21875 0  0.875 1.21875 0  0.9375 1.21875 0  1 1.21875 0  0 1.3125 0  0.0625 1.3125 0  0.125 1.3125 0  0.1875 1.3125 0  0.25 1.3125 0  0.3125 1.3125 0  0.375 1.3125 0  0.4375 1.3125 0  0.5 1.3125 0  0.5625 1.3125 0  0.625 1.3125 0  0.6875 1.3125 0  0.75 1.3125 0  0.8125 1.3125 0  0.875 1.3125 0  0.9375 1.3125 0  1 1.3125 0  0 1.40625 0  0.0625 1.40625 0  0.125 1.40625 0  0.1875 1.40625 0  0.25 1.40625 0  0.3125 1.40625 0  0.375 1.40625 0  0.4375 1.40625 0  0.5 1.40625 0  0.5625 1.40625 0  0.625 1.40625 0  0.6875 1.40625 0  0.75 1.40625 0  0.8125 1.40625 0  0.875 1.40625 0  0.9375 1.40625 0  1 1.40625 0  0 1.5 0  0.0625 1.5 0  0.125 1.5 0  0.1875 1.5 0  0.25 1.5 0  0.3125 1.5 0  0.375 1.5 0  0.4375 1.5 0  0.5 1.5 0  0.5625 1.5 0  0.625 1.5 0  0.6875 1.5 0  0.75 1.5 0  0.8125 1.5 0  0.875 1.5 0  0.9375 1.5 0  1 1.5 0  </DataArray>
</Points>
<Cells>
<DataArray  type="UInt32"  Name="connectivity"  format="ascii">0 1 17  1 17 18  1 2 18  2 18 19  2 3 19  3 19 20  3 4 20  4 20 21  4 5 21  5 21 22  5 6 22  6 22 23  6 7 23  7 23 24  7 8 24  8 24 25  8 9 25  9 25 26  9 10 26  10 26 27  10 11 27  11 27 28  11 12 28  12 28 29  12 13 29  13 29 30  13 14 30  14 30 31  14 15 31  15 31 32  15 16 32  16 32 33  17 18 34  18 34 35  18 19 35  19 35 36  19 20 36  20 36 37  20 21 37  21 37 38  21 22 38  22 38 39  22 23 39  23 39 40  23 24 40  24 40 41  24 25 41  25 41 42  25 26 42  26 42 43  26 27 43  27 43 44  27 28 44  28 44 45  28 29 45  29 45 46  29 30 46  30 46 47  30 31 47  31 47 48  31 32 48  32 48 49  32 33 49  33 49 50  34 35 51  35 51 52  35 36 52  36 52 53  36 37 53  37 53 54  37 38 54  38 54 55  38 39 55  39 55 56  39 40 56  40 56 57  40 41 57  41 57 58  41 42 58  42 58 59  42 43 59  43 59 60  43 44 60  44 60 61  44 45 61  45 61 62  45 46 62  46 62 63  46 47 63  47 63 64  47 48 64  48 64 65  48 49 65  49 65 66  49 50 66  50 66 67  51 52 68  52 68 69  52 53 69  53 69 70  53 54 70  54 70 71  54 55 71  55 71 72  55 56 72  56 72 73  56 57 73  57 73 74  57 58 74  58 74 75  58 59 75  59 75 76  59 60 76  60 76 77  60 61 77  61 77 78  61 62 78  62 78 79  62 63 79  63 79 80  63 64 80  64 80 81  64 65 81  65 81 82  65 66 82  66 82 83  66 67 83  67 83 84  68 69 85  69 85 86  69 70 86  70 86 87  70 71 87  71 87 88  71 72 88  72 88 89  72 73 89  73 89 90  73 74 90  74 90 91  74 75 91  75 91 92  75 76 92  76 92 93  76 77 93  77 93 94  77 78 94  78 94 95  78 79 95  79 95 96  79 80 96  80 96 97  80 81 97  81 97 98  81 82 98  82 98 99  82 83 99  83 99 100  83 84 100  84 100 101  85 86 102  86 102 103  86 87 103  87 103 104  87 88 104  88 104 105  88 89 105  89 105 106  89 90 106  90 106 107  90 91 107  91 107 108  91 92 108  92 108 109  92 93 109  93 109 110  93 94 110  94 110 111  94 95 111  95 111 112  95 96 112  96 112 113  96 97 113  97 113 114  97 98 114  98 114 115  98 99 115  99 115 116  99 100 116  100 116 117  100 101 117  101 117 118  102 103 119  103 119 120  103 104 120  104 120 121  104 105 121  105 121 122  105 106 122  106 122 123  106 107 123  107 123 124  107 108 124  108 124 125  108 109 125  109 125 126  109 110 126  110 126 127  110 111 127  111 127 128  111 112 128  112 128 129  112 113 129  113 129 130  113 114 130  114 130 131  114 115 131  115 131 132  115 116 132  116 132 133  116 117 133  117 133 134  117 118 134  118 134 135  119 120 136  120 136 137  120 121 137  121 137 138  121 122 138  122 138 139  122 123 139  123 139 140  123 124 140  124 140 141  124 125 141  125 141 142  125 126 142  126 142 143  126 127 143  127 143 144  127 128 144  128 144 145  128 129 145  129 145 146  129 130 146  130 146 147  130 131 147  131 147 148  131 132 148  132 148 149  132 133 149  133 149 150  133 134 150  134 150 151  134 135 151  135 151 152  136 137 153  137 153 154  137 138 154  138 154 155  138 139 155  139 155 156  139 140 156  140 156 157  140 141 157  141 157 158  141 142 158  142 158 159  142 143 159  143 159 160  143 144 160  144 160 161  144 145 161  145 161 162  145 146 162  146 162 163  146 147 163  147 163 164  147 148 164  148 164 165  148 149 165  149 165 166  149 150 166  150 166 167  150 151 167  151 167 168  151 152 168  152 168 169  153 154 170  154 170 171  154 155 171  155 171 172  155 156 172  156 172 173  156 157 173  157 173 174  157 158 174  158 174 175  158 159 175  159 175 176  159 160 176  160 176 177  160 161 177  161 177 178  161 162 178  162 178 179  162 163 179  163 179 180  163 164 180  164 180 181  164 165 181  165 181 182  165 166 182  166 182 183  166 167 183  167 183 184  167 168 184  168 184 185  168 169 185  169 185 186  170 171 187  171 187 188  171 172 188  172 188 189  172 173 189  173 189 190  173 174 190  174 190 191  174 175 191  175 191 192  175 176 192  176 192 193  176 177 193  177 193 194  177 178 194  178 194 195  178 179 195  179 195 196  179 180 196  180 196 197  180 181 197  181 197 198  181 182 198  182 198 199  182 183 199  183 199 200  183 184 200  184 200 201  184 185 201  185 201 202  185 186 202  186 202 203  187 188 204  188 204 205  188 189 205  189 205 206  189 190 206  190 206 207  190 191 207  191 207 208  191 192 208  192 208 209  192 193 209  193 209 210  193 194 210  194 210 211  194 195 211  195 211 212  195 196 212  196 212 213  196 197 213  197 213 214  197 198 214  198 214 215  198 199 215  199 215 216  199 200 216  200 216 217  200 201 217  201 217 218  201 202 218  202 218 219  202 203 219  203 219 220  204 205 221  205 221 222  205 206 222  206 222 223  206 207 223  207 223 224  207 208 224  208 224 225  208 209 225  209 225 226  209 210 226  210 226 227  210 211 227  211 227 228  211 212 228  212 228 229  212 213 229  213 229 230  213 214 230  214 230 231  214 215 231  215 231 232  215 216 232  216 232 233  216 217 233  217 233 234  217 218 234  218 234 235  218 219 235  219 235 236  219 220 236  220 236 237  221 222 238  222 238 239  222 223 239  223 239 240  223 224 240  224 240 241  224 225 241  225 241 242  225 226 242  226 242 243  226 227 243  227 243 244  227 228 244  228 244 245  228 229 245  229 245 246  229 230 246  230 246 247  230 231 247  231 247 248  231 232 248  232 248 249  232 233 249  233 249 250  233 234 250  234 250 251  234 235 251  235 251 252  235 236 252  236 252 253  236 237 253  237 253 254  238 239 255  239 255 256  239 240 256  240 256 257  240 241 257  241 257 258  241 242 258  242 258 259  242 243 259  243 259 260  243 244 260  244 260 261  244 245 261  245 261 262  245 246 262  246 262 263  246 247 263  247 263 264  247 248 264  248 264 265  248 249 265  249 265 266  249 250 266  250 266 267  250 251 267  251 267 268  251 252 268  252 268 269  252 253 269  253 269 270  253 254 270  254 270 271  255 256 272  256 272 273  256 257 273  257 273 274  257 258 274  258 274 275  258 259 275  259 275 276  259 260 276  260 276 277  260 261 277  261 277 278  261 262 278  262 278 279  262 263 279  263 279 280  263 264 280  264 280 281  264 265 281  265 281 282  265 266 282  266 282 283  266 267 283  267 283 284  267 268 284  268 284 285  268 269 285  269 285 286  269 270 286  270 286 287  270 271 287  271 287 288  </DataArray>
<DataArray  type="UInt32"  Name="offsets"  format="ascii">3 6 9 12 15 18 21 24 27 30 33 36 39 42 45 48 51 54 57 60 63 66 69 72 75 78 81 84 87 90 93 96 99 102 105 108 111 114 117 120 123 126 129 132 135 138 141 144 147 150 153 156 159 162 165 168 171 174 177 180 183 186 189 192 195 198 201 204 207 210 213 216 219 222 225 228 231 234 237 240 243 246 249 252 255 258 261 264 267 270 273 276 279 282 285 288 291 294 297 300 303 306 309 312 315 318 321 324 327 330 333 336 339 342 345 348 351 354 357 360 363 366 369 372 375 378 381 384 387 390 393 396 399 402 405 408 411 414 417 420 423 426 429 432 435 438 441 444 447 450 453 456 459 462 465 468 471 474 477 480 483 486 489 492 495 498 501 504 507 510 513 516 519 522 525 528 531 534 537 540 543 546 549 552 555 558 561 564 567 570 573 576 579 582 585 588 591 594 597 600 603 606 609 612 615 618 621 624 627 630 633 636 639 642 645 648 651 654 657 660 663 666 669 672 675 678 681 684 687 690 693 696 699 702 705 708 711 714 717 720 723 726 729 732 735 738 741 744 747 750 753 756 759 762 765 768 771 774 777 780 783 786 789 792 795 798 801 804 807 810 813 816 819 822 825 828 831 834 837 840 843 846 849 852 855 858 861 864 867 870 873 876 879 882 885 888 891 894 897 900 903 906 909 912 915 918 921 924 927 930 933 936 939 942 945 948 951 954 957 960 963 966 969 972 975 978 981 984 987 990 993 996 999 1002 1005 1008 1011 1014 1017 1020 1023 1026 1029 1032 1035 1038 1041 1044 1047 1050 1053 1056 1059 1062 1065 1068 1071 1074 1077 1080 1083 1086 1089 1092 1095 1098 1101 1104 1107 1110 1113 1116 1119 1122 1125 1128 1131 1134 1137 1140 1143 1146 1149 1152 1155 1158 1161 1164 1167 1170 1173 1176 1179 1182 1185 1188 1191 1194 1197 1200 1203 1206 1209 1212 1215 1218 1221 1224 1227 1230 1233 1236 1239 1242 1245 1248 1251 1254 1257 1260 1263 1266 1269 1272 1275 1278 1281 1284 1287 1290 1293 1296 1299 1302 1305 1308 1311 1314 1317 1320 1323 1326 1329 1332 1335 1338 1341 1344 1347 1350 1353 1356 1359 1362 1365 1368 1371 1374 1377 1380 1383 1386 1389 1392 1395 1398 1401 1404 1407 1410 1413 1416 1419 1422 1425 1428 1431 1434 1437 1440 1443 1446 1449 1452 1455 1458 1461 1464 1467 1470 1473 1476 1479 1482 1485 1488 1491 1494 1497 1500 1503 1506 1509 1512 1515 1518 1521 1524 1527 1530 1533 1536 </DataArray>
<DataArray  type="UInt8"  Name="types"  format="ascii">5 5 5 5 5 5 5 5 5 5 5 5 5 5 5 5 5 5 5 5 5 5 5 5 5 5 5 5 5 5 5 5 5 5 5 5 5 5 5 5 5 5 5 5 5 5 5 5 5 5 5 5 5 5 5 5 5 5 5 5 5 5 5 5 5 5 5 5 5 5 5 5 5 5 5 5 5 5 5 5 5 5 5 5 5 5 5 5 5 5 5 5 5 5 5 5 5 5 5 5 5 5 5 5 5 5 5 5 5 5 5 5 5 5 5 5 5 5 5 5 5 5 5 5 5 5 5 5 5 5 5 5 5 5 5 5 5 5 5 5 5 5 5 5 5 5 5 5 5 5 5 5 5 5 5 5 5 5 5 5 5 5 5 5 5 5 5 5 5 5 5 5 5 5 5 5 5 5 5 5 5 5 5 5 5 5 5 5 5 5 5 5 5 5 5 5 5 5 5 5 5 5 5 5 5 5 5 5 5 5 5 5 5 5 5 5 5 5 5 5 5 5 5 5 5 5 5 5 5 5 5 5 5 5 5 5 5 5 5 5 5 5 5 5 5 5 5 5 5 5 5 5 5 5 5 5 5 5 5 5 5 5 5 5 5 5 5 5 5 5 5 5 5 5 5 5 5 5 5 5 5 5 5 5 5 5 5 5 5 5 5 5 5 5 5 5 5 5 5 5 5 5 5 5 5 5 5 5 5 5 5 5 5 5 5 5 5 5 5 5 5 5 5 5 5 5 5 5 5 5 5 5 5 5 5 5 5 5 5 5 5 5 5 5 5 5 5 5 5 5 5 5 5 5 5 5 5 5 5 5 5 5 5 5 5 5 5 5 5 5 5 5 5 5 5 5 5 5 5 5 5 5 5 5 5 5 5 5 5 5 5 5 5 5 5 5 5 5 5 5 5 5 5 5 5 5 5 5 5 5 5 5 5 5 5 5 5 5 5 5 5 5 5 5 5 5 5 5 5 5 5 5 5 5 5 5 5 5 5 5 5 5 5 5 5 5 5 5 5 5 5 5 5 5 5 5 5 5 5 5 5 5 5 5 5 5 5 5 5 5 5 5 5 5 5 5 5 5 5 5 5 5 5 5 5 5 5 5 5 5 5 5 5 5 5 5 5 5 5 5 5 5 5 5 5 5 5 5 5 5 5 5 </DataArray>
</Cells>
<PointData  Vectors="f_187"> 
<DataArray  type="Float64"  Name="f_187"  NumberOfComponents="3" format="ascii">1.0907442517280560e-02 0.0000000000000000e+00 0.0000000000000000e+00  3.2717136199948559e-02 0.0000000000000000e+00 0.0000000000000000e+00  5.4511258297739534e-02 0.0000000000000000e+00 0.0000000000000000e+00  7.6279435988900607e-02 0.0000000000000000e+00 0.0000000000000000e+00  9.8011308799811375e-02 0.0000000000000000e+00 0.0000000000000000e+00  1.1969653353600807e-01 0.0000000000000000e+00 0.0000000000000000e+00  1.4132478920498415e-01 0.0000000000000000e+00 0.0000000000000000e+00  1.6288578192842351e-01 0.0000000000000000e+00 0.0000000000000000e+00  1.8436924984152930e-01 0.0000000000000000e+00 0.0000000000000000e+00  2.0576496797711558e-01 0.0000000000000000e+00 0.0000000000000000e+00  2.2706275313213797e-01 0.0000000000000000e+00 0.0000000000000000e+00  2.4825246871434692e-01 0.0000000000000000e+00 0.0000000000000000e+00  2.6932402956675638e-01 0.0000000000000000e+00 0.0000000000000000e+00  2.9026740676763263e-01 0.0000000000000000e+00 0.0000000000000000e+00  3.1107263240371735e-01 0.0000000000000000e+00 0.0000000000000000e+00  3.3172980431441512e-01 0.0000000000000000e+00 0.0000000000000000e+00  4.9240387650610395e-01 0.0000000000000000e+00 0.0000000000000000e+00  3.7256073532439571e-01 0.0000000000000000e+00 0.0000000000000000e+00  3.9271506111191345e-01 0.0000000000000000e+00 0.0000000000000000e+00  4.1268247579971828e-01 0.0000000000000000e+00 0.0000000000000000e+00  4.3245347597985034e-01 0.0000000000000000e+00 0.0000000000000000e+00  4.5201865172701761e-01 0.0000000000000000e+00 0.0000000000000000e+00  4.7136869107721080e-01 0.0000000000000000e+00 0.0000000000000000e+00  4.9049438445969379e-01 0.0000000000000000e+00 0.0000000000000000e+00  5.0938662908026067e-01 0.0000000000000000e+00 0.0000000000000000e+00  5.2803643325367267e-01 0.0000000000000000e+00 0.0000000000000000e+00  5.4643492068321309e-01 0.0000000000000000e+00 0.0000000000000000e+00  5.6457333468532411e-01 0.0000000000000000e+00 0.0000000000000000e+00  5.8244304235731414e-01 0.0000000000000000e+00 0.0000000000000000e+00  6.0003553868615156e-01 0.0000000000000000e+00 0.0000000000000000e+00  6.1734245059638981e-01 0.0000000000000000e+00 0.0000000000000000e+00  6.3435554093529922e-01 0.0000000000000000e+00 0.0000000000000000e+00  6.5106671239330405e-01 0.0000000000000000e+00 0.0000000000000000e+00  7.6803628540378832e-01 0.0000000000000000e+00 0.0000000000000000e+00  6.8355163169896471e-01 0.0000000000000000e+00 0.0000000000000000e+00  6.9930991848440849e-01 0.0000000000000000e+00 0.0000000000000000e+00  7.1473537162315148e-01 0.0000000000000000e+00 0.0000000000000000e+00  7.2982064943493974e-01 0.0000000000000000e+00 0.0000000000000000e+00  7.4455857214455068e-01 0.0000000000000000e+00 0.0000000000000000e+00  7.5894212529897764e-01 0.0000000000000000e+00 0.0000000000000000e+00  7.7296446310592981e-01 0.0000000000000000e+00 0.0000000000000000e+00  7.8661891169205844e-01 0.0000000000000000e+00 0.0000000000000000e+00  7.9989897227935880e-01 0.0000000000000000e+00 0.0000000000000000e+00  8.1279832427823717e-01 0.0000000000000000e+00 0.0000000000000000e+00  8.2531082829576852e-01 0.0000000000000000e+00 0.0000000000000000e+00  8.3743052905771553e-01 0.0000000000000000e+00 0.0000000000000000e+00  8.4915165824291616e-01 0.0000000000000000e+00 0.0000000000000000e+00  8.6046863722869249e-01 0.0000000000000000e+00 0.0000000000000000e+00  8.7137607974597309e-01 0.0000000000000000e+00 0.0000000000000000e+00  8.8186879444286470e-01 0.0000000000000000e+00 0.0000000000000000e+00  9.3922784727601605e-01 0.0000000000000000e+00 0.0000000000000000e+00  9.0159026428466915e-01 0.0000000000000000e+00 0.0000000000000000e+00  9.1080963307804852e-01 0.0000000000000000e+00 0.0000000000000000e+00  9.1959550581536686e-01 0.0000000000000000e+00 0.0000000000000000e+00  9.2794370089704259e-01 0.0000000000000000e+00 0.0000000000000000e+00  9.3585024503435332e-01 0.0000000000000000e+00 0.0000000000000000e+00  9.4331137514050689e-01 0.0000000000000000e+00 0.0000000000000000e+00  9.5032354012166620e-01 0.0000000000000000e+00 0.0000000000000000e+00  9.5688340256707771e-01 0.0000000000000000e+00 0.0000000000000000e+00  9.6298784033749851e-01 0.0000000000000000e+00 0.0000000000000000e+00  9.6863394805116487e-01 0.0000000000000000e+00 0.0000000000000000e+00  9.7381903846659745e-01 0.0000000000000000e+00 0.0000000000000000e+00  9.7854064376158190e-01 0.0000000000000000e+00 0.0000000000000000e+00  9.8279651670771928e-01 0.0000000000000000e+00 0.0000000000000000e+00  9.8658463173998434e-01 0.0000000000000000e+00 0.0000000000000000e+00  9.8990318592078552e-01 0.0000000000000000e+00 0.0000000000000000e+00  9.9275059979806501e-01 0.0000000000000000e+00 0.0000000000000000e+00  9.8269920401779054e-01 0.0000000000000000e+00 0.0000000000000000e+00  9.9702681066517451e-01 0.0000000000000000e+00 0.0000000000000000e+00  9.9845357241023058e-01 0.0000000000000000e+00 0.0000000000000000e+00  9.9940512433088347e-01 0.0000000000000000e+00 0.0000000000000000e+00  9.9988101353995451e-01 0.0000000000000000e+00 0.0000000000000000e+00  9.9988101353995451e-01 0.0000000000000000e+00 0.0000000000000000e+00  9.9940512433088347e-01 0.0000000000000000e+00 0.0000000000000000e+00  9.9845357241023058e-01 0.0000000000000000e+00 0.0000000000000000e+00  9.9702681066517451e-01 0.0000000000000000e+00 0.0000000000000000e+00  9.9512551815703265e-01 0.0000000000000000e+00 0.0000000000000000e+00  9.9275059979806501e-01 0.0000000000000000e+00 0.0000000000000000e+00  9.8990318592078552e-01 0.0000000000000000e+00 0.0000000000000000e+00  9.8658463173998434e-01 0.0000000000000000e+00 0.0000000000000000e+00  9.8279651670771928e-01 0.0000000000000000e+00 0.0000000000000000e+00  9.7854064376158190e-01 0.0000000000000000e+00 0.0000000000000000e+00  9.7381903846659745e-01 0.0000000000000000e+00 0.0000000000000000e+00  9.6863394805116487e-01 0.0000000000000000e+00 0.0000000000000000e+00  8.9253893528903017e-01 0.0000000000000000e+00 0.0000000000000000e+00  9.5688340256707782e-01 0.0000000000000000e+00 0.0000000000000000e+00  9.5032354012166631e-01 0.0000000000000000e+00 0.0000000000000000e+00  9.4331137514050711e-01 0.0000000000000000e+00 0.0000000000000000e+00  9.3585024503435355e-01 0.0000000000000000e+00 0.0000000000000000e+00  9.2794370089704259e-01 0.0000000000000000e+00 0.0000000000000000e+00  9.1959550581536698e-01 0.0000000000000000e+00 0.0000000000000000e+00  9.1080963307804863e-01 0.0000000000000000e+00 0.0000000000000000e+00  9.0159026428466915e-01 0.0000000000000000e+00 0.0000000000000000e+00  8.9194178735545515e-01 0.0000000000000000e+00 0.0000000000000000e+00  8.8186879444286481e-01 0.0000000000000000e+00 0.0000000000000000e+00  8.7137607974597331e-01 0.0000000000000000e+00 0.0000000000000000e+00  8.6046863722869271e-01 0.0000000000000000e+00 0.0000000000000000e+00  8.4915165824291627e-01 0.0000000000000000e+00 0.0000000000000000e+00  8.3743052905771564e-01 0.0000000000000000e+00 0.0000000000000000e+00  8.2531082829576874e-01 0.0000000000000000e+00 0.0000000000000000e+00  8.1279832427823728e-01 0.0000000000000000e+00 0.0000000000000000e+00  6.8100741864354253e-01 0.0000000000000000e+00 0.0000000000000000e+00  7.8661891169205855e-01 0.0000000000000000e+00 0.0000000000000000e+00  7.7296446310592992e-01 0.0000000000000000e+00 0.0000000000000000e+00  7.5894212529897764e-01 0.0000000000000000e+00 0.0000000000000000e+00  7.4455857214455068e-01 0.0000000000000000e+00 0.0000000000000000e+00  7.2982064943493985e-01 0.0000000000000000e+00 0.0000000000000000e+00  7.1473537162315159e-01 0.0000000000000000e+00 0.0000000000000000e+00  6.9930991848440849e-01 0.0000000000000000e+00 0.0000000000000000e+00  6.8355163169896493e-01 0.0000000000000000e+00 0.0000000000000000e+00  6.6746801135786460e-01 0.0000000000000000e+00 0.0000000000000000e+00  6.5106671239330427e-01 0.0000000000000000e+00 0.0000000000000000e+00  6.3435554093529933e-01 0.0000000000000000e+00 0.0000000000000000e+00  6.1734245059639004e-01 0.0000000000000000e+00 0.0000000000000000e+00  6.0003553868615178e-01 0.0000000000000000e+00 0.0000000000000000e+00  5.8244304235731448e-01 0.0000000000000000e+00 0.0000000000000000e+00  5.6457333468532445e-01 0.0000000000000000e+00 0.0000000000000000e+00  5.4643492068321331e-01 0.0000000000000000e+00 0.0000000000000000e+00  3.7686961114246365e-01 0.0000000000000000e+00 0.0000000000000000e+00  5.0938662908026067e-01 0.0000000000000000e+00 0.0000000000000000e+00  4.9049438445969379e-01 0.0000000000000000e+00 0.0000000000000000e+00  4.7136869107721080e-01 0.0000000000000000e+00 0.0000000000000000e+00  4.5201865172701761e-01 0.0000000000000000e+00 0.0000000000000000e+00  4.3245347597985040e-01 0.0000000000000000e+00 0.0000000000000000e+00  4.1268247579971840e-01 0.0000000000000000e+00 0.0000000000000000e+00  3.9271506111191357e-01 0.0000000000000000e+00 0.0000000000000000e+00  3.7256073532439582e-01 0.0000000000000000e+00 0.0000000000000000e+00  3.5222909080468534e-01 0.0000000000000000e+00 0.0000000000000000e+00  3.3172980431441534e-01 0.0000000000000000e+00 0.0000000000000000e+00  3.1107263240371752e-01 0.0000000000000000e+00 0.0000000000000000e+00  2.9026740676763285e-01 0.0000000000000000e+00 0.0000000000000000e+00  2.6932402956675666e-01 0.0000000000000000e+00 0.0000000000000000e+00  2.4825246871434720e-01 0.0000000000000000e+00 0.0000000000000000e+00  2.2706275313213828e-01 0.0000000000000000e+00 0.0000000000000000e+00  2.0576496797711591e-01 0.0000000000000000e+00 0.0000000000000000e+00  2.1483467913106097e-02 0.0000000000000000e+00 0.0000000000000000e+00  1.6288578192842390e-01 0.0000000000000000e+00 0.0000000000000000e+00  1.4132478920498431e-01 0.0000000000000000e+00 0.0000000000000000e+00  1.1969653353600807e-01 0.0000000000000000e+00 0.0000000000000000e+00  9.8011308799811375e-02 0.0000000000000000e+00 0.0000000000000000e+00  7.6279435988900662e-02 0.0000000000000000e+00 0.0000000000000000e+00  5.4511258297739590e-02 0.0000000000000000e+00 0.0000000000000000e+00  3.2717136199948642e-02 0.0000000000000000e+00 0.0000000000000000e+00  1.0907442517280670e-02 0.0000000000000000e+00 0.0000000000000000e+00  -1.0907442517280427e-02 0.0000000000000000e+00 0.0000000000000000e+00  -3.2717136199948399e-02 0.0000000000000000e+00 0.0000000000000000e+00  -5.4511258297739347e-02 0.0000000000000000e+00 0.0000000000000000e+00  -7.6279435988900413e-02 0.0000000000000000e+00 0.0000000000000000e+00  -9.8011308799811125e-02 0.0000000000000000e+00 0.0000000000000000e+00  -1.1969653353600782e-01 0.0000000000000000e+00 0.0000000000000000e+00  -1.4132478920498387e-01 0.0000000000000000e+00 0.0000000000000000e+00  -1.6288578192842323e-01 0.0000000000000000e+00 0.0000000000000000e+00  -3.3682408883346487e-01 0.0000000000000000e+00 0.0000000000000000e+00  -2.0576496797711522e-01 0.0000000000000000e+00 0.0000000000000000e+00  -2.2706275313213761e-01 0.0000000000000000e+00 0.0000000000000000e+00  -2.4825246871434675e-01 0.0000000000000000e+00 0.0000000000000000e+00  -2.6932402956675638e-01 0.0000000000000000e+00 0.0000000000000000e+00  -2.9026740676763252e-01 0.0000000000000000e+00 0.0000000000000000e+00  -3.1107263240371730e-01 0.0000000000000000e+00 0.0000000000000000e+00  -3.3172980431441512e-01 0.0000000000000000e+00 0.0000000000000000e+00  -3.5222909080468512e-01 0.0000000000000000e+00 0.0000000000000000e+00  -3.7256073532439560e-01 0.0000000000000000e+00 0.0000000000000000e+00  -3.9271506111191334e-01 0.0000000000000000e+00 0.0000000000000000e+00  -4.1268247579971817e-01 0.0000000000000000e+00 0.0000000000000000e+00  -4.3245347597985018e-01 0.0000000000000000e+00 0.0000000000000000e+00  -4.5201865172701738e-01 0.0000000000000000e+00 0.0000000000000000e+00  -4.7136869107721058e-01 0.0000000000000000e+00 0.0000000000000000e+00  -4.9049438445969357e-01 0.0000000000000000e+00 0.0000000000000000e+00  -5.0938662908026044e-01 0.0000000000000000e+00 0.0000000000000000e+00  -6.4932887062670153e-01 0.0000000000000000e+00 0.0000000000000000e+00  -5.4643492068321275e-01 0.0000000000000000e+00 0.0000000000000000e+00  -5.6457333468532389e-01 0.0000000000000000e+00 0.0000000000000000e+00  -5.8244304235731392e-01 0.0000000000000000e+00 0.0000000000000000e+00  -6.0003553868615134e-01 0.0000000000000000e+00 0.0000000000000000e+00  -6.1734245059638981e-01 0.0000000000000000e+00 0.0000000000000000e+00  -6.3435554093529922e-01 0.0000000000000000e+00 0.0000000000000000e+00  -6.5106671239330405e-01 0.0000000000000000e+00 0.0000000000000000e+00  -6.6746801135786449e-01 0.0000000000000000e+00 0.0000000000000000e+00  -6.8355163169896471e-01 0.0000000000000000e+00 0.0000000000000000e+00  -6.9930991848440838e-01 0.0000000000000000e+00 0.0000000000000000e+00  -7.1473537162315148e-01 0.0000000000000000e+00 0.0000000000000000e+00  -7.2982064943493974e-01 0.0000000000000000e+00 0.0000000000000000e+00  -7.4455857214455057e-01 0.0000000000000000e+00 0.0000000000000000e+00  -7.5894212529897764e-01 0.0000000000000000e+00 0.0000000000000000e+00  -7.7296446310592992e-01 0.0000000000000000e+00 0.0000000000000000e+00  -7.8661891169205844e-01 0.0000000000000000e+00 0.0000000000000000e+00  -8.7353514551973088e-01 0.0000000000000000e+00 0.0000000000000000e+00  -8.1279832427823706e-01 0.0000000000000000e+00 0.0000000000000000e+00  -8.2531082829576841e-01 0.0000000000000000e+00 0.0000000000000000e+00  -8.3743052905771531e-01 0.0000000000000000e+00 0.0000000000000000e+00  -8.4915165824291605e-01 0.0000000000000000e+00 0.0000000000000000e+00  -8.6046863722869249e-01 0.0000000000000000e+00 0.0000000000000000e+00  -8.7137607974597309e-01 0.0000000000000000e+00 0.0000000000000000e+00  -8.8186879444286459e-01 0.0000000000000000e+00 0.0000000000000000e+00  -8.9194178735545493e-01 0.0000000000000000e+00 0.0000000000000000e+00  -9.0159026428466893e-01 0.0000000000000000e+00 0.0000000000000000e+00  -9.1080963307804841e-01 0.0000000000000000e+00 0.0000000000000000e+00  -9.1959550581536686e-01 0.0000000000000000e+00 0.0000000000000000e+00  -9.2794370089704248e-01 0.0000000000000000e+00 0.0000000000000000e+00  -9.3585024503435332e-01 0.0000000000000000e+00 0.0000000000000000e+00  -9.4331137514050689e-01 0.0000000000000000e+00 0.0000000000000000e+00  -9.5032354012166631e-01 0.0000000000000000e+00 0.0000000000000000e+00  -9.5688340256707782e-01 0.0000000000000000e+00 0.0000000000000000e+00  -9.7895438881226604e-01 0.0000000000000000e+00 0.0000000000000000e+00  -9.6863394805116476e-01 0.0000000000000000e+00 0.0000000000000000e+00  -9.7381903846659734e-01 0.0000000000000000e+00 0.0000000000000000e+00  -9.7854064376158179e-01 0.0000000000000000e+00 0.0000000000000000e+00  -9.8279651670771917e-01 0.0000000000000000e+00 0.0000000000000000e+00  -9.8658463173998434e-01 0.0000000000000000e+00 0.0000000000000000e+00  -9.8990318592078552e-01 0.0000000000000000e+00 0.0000000000000000e+00  -9.9275059979806501e-01 0.0000000000000000e+00 0.0000000000000000e+00  -9.9512551815703254e-01 0.0000000000000000e+00 0.0000000000000000e+00  -9.9702681066517451e-01 0.0000000000000000e+00 0.0000000000000000e+00  -9.9845357241023058e-01 0.0000000000000000e+00 0.0000000000000000e+00  -9.9940512433088347e-01 0.0000000000000000e+00 0.0000000000000000e+00  -9.9988101353995451e-01 0.0000000000000000e+00 0.0000000000000000e+00  -9.9988101353995451e-01 0.0000000000000000e+00 0.0000000000000000e+00  -9.9940512433088347e-01 0.0000000000000000e+00 0.0000000000000000e+00  -9.9845357241023069e-01 0.0000000000000000e+00 0.0000000000000000e+00  -9.9702681066517451e-01 0.0000000000000000e+00 0.0000000000000000e+00  -9.5125124256419791e-01 0.0000000000000000e+00 0.0000000000000000e+00  -9.9275059979806501e-01 0.0000000000000000e+00 0.000000000