<?xml version="1.0"?>
<VTKFile type="UnstructuredGrid"  version="0.1"  >
<UnstructuredGrid>
<Piece  NumberOfPoints="16641" NumberOfCells="32768">
<Points>
<DataArray  type="Float64"  NumberOfComponents="3"  format="ascii">0 0 0  0.0078125 0 0  0.015625 0 0  0.0234375 0 0  0.03125 0 0  0.0390625 0 0  0.046875 0 0  0.0546875 0 0  0.0625 0 0  0.0703125 0 0  0.078125 0 0  0.0859375 0 0  0.09375 0 0  0.1015625 0 0  0.109375 0 0  0.1171875 0 0  0.125 0 0  0.1328125 0 0  0.140625 0 0  0.1484375 0 0  0.15625 0 0  0.1640625 0 0  0.171875 0 0  0.1796875 0 0  0.1875 0 0  0.1953125 0 0  0.203125 0 0  0.2109375 0 0  0.21875 0 0  0.2265625 0 0  0.234375 0 0  0.2421875 0 0  0.25 0 0  0.2578125 0 0  0.265625 0 0  0.2734375 0 0  0.28125 0 0  0.2890625 0 0  0.296875 0 0  0.3046875 0 0  0.3125 0 0  0.3203125 0 0  0.328125 0 0  0.3359375 0 0  0.34375 0 0  0.3515625 0 0  0.359375 0 0  0.3671875 0 0  0.375 0 0  0.3828125 0 0  0.390625 0 0  0.3984375 0 0  0.40625 0 0  0.4140625 0 0  0.421875 0 0  0.4296875 0 0  0.4375 0 0  0.4453125 0 0  0.453125 0 0  0.4609375 0 0  0.46875 0 0  0.4765625 0 0  0.484375 0 0  0.4921875 0 0  0.5 0 0  0.5078125 0 0  0.515625 0 0  0.5234375 0 0  0.53125 0 0  0.5390625 0 0  0.546875 0 0  0.5546875 0 0  0.5625 0 0  0.5703125 0 0  0.578125 0 0  0.5859375 0 0  0.59375 0 0  0.6015625 0 0  0.609375 0 0  0.6171875 0 0  0.625 0 0  0.6328125 0 0  0.640625 0 0  0.6484375 0 0  0.65625 0 0  0.6640625 0 0  0.671875 0 0  0.6796875 0 0  0.6875 0 0  0.6953125 0 0  0.703125 0 0  0.7109375 0 0  0.71875 0 0  0.7265625 0 0  0.734375 0 0  0.7421875 0 0  0.75 0 0  0.7578125 0 0  0.765625 0 0  0.7734375 0 0  0.78125 0 0  0.7890625 0 0  0.796875 0 0  0.8046875 0 0  0.8125 0 0  0.8203125 0 0  0.828125 0 0  0.8359375 0 0  0.84375 0 0  0.8515625 0 0  0.859375 0 0  0.8671875 0 0  0.875 0 0  0.8828125 0 0  0.890625 0 0  0.8984375 0 0  0.90625 0 0  0.9140625 0 0  0.921875 0 0  0.9296875 0 0  0.9375 0 0  0.9453125 0 0  0.953125 0 0  0.9609375 0 0  0.96875 0 0  0.9765625 0 0  0.984375 0 0  0.9921875 0 0  1 0 0  0 0.01171875 0  0.0078125 0.01171875 0  0.015625 0.01171875 0  0.0234375 0.01171875 0  0.03125 0.01171875 0  0.0390625 0.01171875 0  0.046875 0.01171875 0  0.0546875 0.01171875 0  0.0625 0.01171875 0  0.0703125 0.01171875 0  0.078125 0.01171875 0  0.0859375 0.01171875 0  0.09375 0.01171875 0  0.1015625 0.01171875 0  0.109375 0.01171875 0  0.1171875 0.01171875 0  0.125 0.01171875 0  0.1328125 0.01171875 0  0.140625 0.01171875 0  0.1484375 0.01171875 0  0.15625 0.01171875 0  0.1640625 0.01171875 0  0.171875 0.01171875 0  0.1796875 0.01171875 0  0.1875 0.01171875 0  0.1953125 0.01171875 0  0.203125 0.01171875 0  0.2109375 0.01171875 0  0.21875 0.01171875 0  0.2265625 0.01171875 0  0.234375 0.01171875 0  0.2421875 0.01171875 0  0.25 0.01171875 0  0.2578125 0.01171875 0  0.265625 0.01171875 0  0.2734375 0.01171875 0  0.28125 0.01171875 0  0.2890625 0.01171875 0  0.296875 0.01171875 0  0.3046875 0.01171875 0  0.3125 0.01171875 0  0.3203125 0.01171875 0  0.328125 0.01171875 0  0.3359375 0.01171875 0  0.34375 0.01171875 0  0.3515625 0.01171875 0  0.359375 0.01171875 0  0.3671875 0.01171875 0  0.375 0.01171875 0  0.3828125 0.01171875 0  0.390625 0.01171875 0  0.3984375 0.01171875 0  0.40625 0.01171875 0  0.4140625 0.01171875 0  0.421875 0.01171875 0  0.4296875 0.01171875 0  0.4375 0.01171875 0  0.4453125 0.01171875 0  0.453125 0.01171875 0  0.4609375 0.01171875 0  0.46875 0.01171875 0  0.4765625 0.01171875 0  0.484375 0.01171875 0  0.4921875 0.01171875 0  0.5 0.01171875 0  0.5078125 0.01171875 0  0.515625 0.01171875 0  0.5234375 0.01171875 0  0.53125 0.01171875 0  0.5390625 0.01171875 0  0.546875 0.01171875 0  0.5546875 0.01171875 0  0.5625 0.01171875 0  0.5703125 0.01171875 0  0.578125 0.01171875 0  0.5859375 0.01171875 0  0.59375 0.01171875 0  0.6015625 0.01171875 0  0.609375 0.01171875 0  0.6171875 0.01171875 0  0.625 0.01171875 0  0.6328125 0.01171875 0  0.640625 0.01171875 0  0.6484375 0.01171875 0  0.65625 0.01171875 0  0.6640625 0.01171875 0  0.671875 0.01171875 0  0.6796875 0.01171875 0  0.6875 0.01171875 0  0.6953125 0.01171875 0  0.703125 0.01171875 0  0.7109375 0.01171875 0  0.71875 0.01171875 0  0.7265625 0.01171875 0  0.734375 0.01171875 0  0.7421875 0.01171875 0  0.75 0.01171875 0  0.7578125 0.01171875 0  0.765625 0.01171875 0  0.7734375 0.01171875 0  0.78125 0.01171875 0  0.7890625 0.01171875 0  0.796875 0.01171875 0  0.8046875 0.01171875 0  0.8125 0.01171875 0  0.8203125 0.01171875 0  0.828125 0.01171875 0  0.8359375 0.01171875 0  0.84375 0.01171875 0  0.8515625 0.01171875 0  0.859375 0.01171875 0  0.8671875 0.01171875 0  0.875 0.01171875 0  0.8828125 0.01171875 0  0.890625 0.01171875 0  0.8984375 0.01171875 0  0.90625 0.01171875 0  0.9140625 0.01171875 0  0.921875 0.01171875 0  0.9296875 0.01171875 0  0.9375 0.01171875 0  0.9453125 0.01171875 0  0.953125 0.01171875 0  0.9609375 0.01171875 0  0.96875 0.01171875 0  0.9765625 0.01171875 0  0.984375 0.01171875 0  0.9921875 0.01171875 0  1 0.01171875 0  0 0.0234375 0  0.0078125 0.0234375 0  0.015625 0.0234375 0  0.0234375 0.0234375 0  0.03125 0.0234375 0  0.0390625 0.0234375 0  0.046875 0.0234375 0  0.0546875 0.0234375 0  0.0625 0.0234375 0  0.0703125 0.0234375 0  0.078125 0.0234375 0  0.0859375 0.0234375 0  0.09375 0.0234375 0  0.1015625 0.0234375 0  0.109375 0.0234375 0  0.1171875 0.0234375 0  0.125 0.0234375 0  0.1328125 0.0234375 0  0.140625 0.0234375 0  0.1484375 0.0234375 0  0.15625 0.0234375 0  0.1640625 0.0234375 0  0.171875 0.0234375 0  0.1796875 0.0234375 0  0.1875 0.0234375 0  0.1953125 0.0234375 0  0.203125 0.0234375 0  0.2109375 0.0234375 0  0.21875 0.0234375 0  0.2265625 0.0234375 0  0.234375 0.0234375 0  0.2421875 0.0234375 0  0.25 0.0234375 0  0.2578125 0.0234375 0  0.265625 0.0234375 0  0.2734375 0.0234375 0  0.28125 0.0234375 0  0.2890625 0.0234375 0  0.296875 0.0234375 0  0.3046875 0.0234375 0  0.3125 0.0234375 0  0.3203125 0.0234375 0  0.328125 0.0234375 0  0.3359375 0.0234375 0  0.34375 0.0234375 0  0.3515625 0.0234375 0  0.359375 0.0234375 0  0.3671875 0.0234375 0  0.375 0.0234375 0  0.3828125 0.0234375 0  0.390625 0.0234375 0  0.3984375 0.0234375 0  0.40625 0.0234375 0  0.4140625 0.0234375 0  0.421875 0.0234375 0  0.4296875 0.0234375 0  0.4375 0.0234375 0  0.4453125 0.0234375 0  0.453125 0.0234375 0  0.4609375 0.0234375 0  0.46875 0.0234375 0  0.4765625 0.0234375 0  0.484375 0.0234375 0  0.4921875 0.0234375 0  0.5 0.0234375 0  0.5078125 0.0234375 0  0.515625 0.0234375 0  0.5234375 0.0234375 0  0.53125 0.0234375 0  0.5390625 0.0234375 0  0.546875 0.0234375 0  0.5546875 0.0234375 0  0.5625 0.0234375 0  0.5703125 0.0234375 0  0.578125 0.0234375 0  0.5859375 0.0234375 0  0.59375 0.0234375 0  0.6015625 0.0234375 0  0.609375 0.0234375 0  0.6171875 0.0234375 0  0.625 0.0234375 0  0.6328125 0.0234375 0  0.640625 0.0234375 0  0.6484375 0.0234375 0  0.65625 0.0234375 0  0.6640625 0.0234375 0  0.671875 0.0234375 0  0.6796875 0.0234375 0  0.6875 0.0234375 0  0.6953125 0.0234375 0  0.703125 0.0234375 0  0.7109375 0.0234375 0  0.71875 0.0234375 0  0.7265625 0.0234375 0  0.734375 0.0234375 0  0.7421875 0.0234375 0  0.75 0.0234375 0  0.7578125 0.0234375 0  0.765625 0.0234375 0  0.7734375 0.0234375 0  0.78125 0.0234375 0  0.7890625 0.0234375 0  0.796875 0.0234375 0  0.8046875 0.0234375 0  0.8125 0.0234375 0  0.8203125 0.0234375 0  0.828125 0.0234375 0  0.8359375 0.0234375 0  0.84375 0.0234375 0  0.8515625 0.0234375 0  0.859375 0.0234375 0  0.8671875 0.0234375 0  0.875 0.0234375 0  0.8828125 0.0234375 0  0.890625 0.0234375 0  0.8984375 0.0234375 0  0.90625 0.0234375 0  0.9140625 0.0234375 0  0.921875 0.0234375 0  0.9296875 0.0234375 0  0.9375 0.0234375 0  0.9453125 0.0234375 0  0.953125 0.0234375 0  0.9609375 0.0234375 0  0.96875 0.0234375 0  0.9765625 0.0234375 0  0.984375 0.0234375 0  0.9921875 0.0234375 0  1 0.0234375 0  0 0.03515625 0  0.0078125 0.03515625 0  0.015625 0.03515625 0  0.0234375 0.03515625 0  0.03125 0.03515625 0  0.0390625 0.03515625 0  0.046875 0.03515625 0  0.0546875 0.03515625 0  0.0625 0.03515625 0  0.0703125 0.03515625 0  0.078125 0.03515625 0  0.0859375 0.03515625 0  0.09375 0.03515625 0  0.1015625 0.03515625 0  0.109375 0.03515625 0  0.1171875 0.03515625 0  0.125 0.03515625 0  0.1328125 0.03515625 0  0.140625 0.03515625 0  0.1484375 0.03515625 0  0.15625 0.03515625 0  0.1640625 0.03515625 0  0.171875 0.03515625 0  0.1796875 0.03515625 0  0.1875 0.03515625 0  0.1953125 0.03515625 0  0.203125 0.03515625 0  0.2109375 0.03515625 0  0.21875 0.03515625 0  0.2265625 0.03515625 0  0.234375 0.03515625 0  0.2421875 0.03515625 0  0.25 0.03515625 0  0.2578125 0.03515625 0  0.265625 0.03515625 0  0.2734375 0.03515625 0  0.28125 0.03515625 0  0.2890625 0.03515625 0  0.296875 0.03515625 0  0.3046875 0.03515625 0  0.3125 0.03515625 0  0.3203125 0.03515625 0  0.328125 0.03515625 0  0.3359375 0.03515625 0  0.34375 0.03515625 0  0.3515625 0.03515625 0  0.359375 0.03515625 0  0.3671875 0.03515625 0  0.375 0.03515625 0  0.3828125 0.03515625 0  0.390625 0.03515625 0  0.3984375 0.03515625 0  0.40625 0.03515625 0  0.4140625 0.03515625 0  0.421875 0.03515625 0  0.4296875 0.03515625 0  0.4375 0.03515625 0  0.4453125 0.03515625 0  0.453125 0.03515625 0  0.4609375 0.03515625 0  0.46875 0.03515625 0  0.4765625 0.03515625 0  0.484375 0.03515625 0  0.4921875 0.03515625 0  0.5 0.03515625 0  0.5078125 0.03515625 0  0.515625 0.03515625 0  0.5234375 0.03515625 0  0.53125 0.03515625 0  0.5390625 0.03515625 0  0.546875 0.03515625 0  0.5546875 0.03515625 0  0.5625 0.03515625 0  0.5703125 0.03515625 0  0.578125 0.03515625 0  0.5859375 0.03515625 0  0.59375 0.03515625 0  0.6015625 0.03515625 0  0.609375 0.03515625 0  0.6171875 0.03515625 0  0.625 0.03515625 0  0.6328125 0.03515625 0  0.640625 0.03515625 0  0.6484375 0.03515625 0  0.65625 0.03515625 0  0.6640625 0.03515625 0  0.671875 0.03515625 0  0.6796875 0.03515625 0  0.6875 0.03515625 0  0.6953125 0.03515625 0  0.703125 0.03515625 0  0.7109375 0.03515625 0  0.71875 0.03515625 0  0.7265625 0.03515625 0  0.734375 0.03515625 0  0.742
[...]
<PointData  Vectors="f_363"> 
<DataArray  type="Float64"  Name="f_363"  NumberOfComponents="3" format="ascii">0.0000000000000000e+00 2.4345265198783151e-02 0.0000000000000000e+00  0.0000000000000000e+00 2.4722634794654683e-02 0.0000000000000000e+00  0.0000000000000000e+00 2.5100000865617759e-02 0.0000000000000000e+00  0.0000000000000000e+00 2.5477363357868228e-02 0.0000000000000000e+00  0.0000000000000000e+00 2.5854722217602422e-02 0.0000000000000000e+00  0.0000000000000000e+00 2.6232077391017197e-02 0.0000000000000000e+00  0.0000000000000000e+00 2.6609428824309944e-02 0.0000000000000000e+00  0.0000000000000000e+00 2.6986776463678572e-02 0.0000000000000000e+00  0.0000000000000000e+00 2.7364120255321540e-02 0.0000000000000000e+00  0.0000000000000000e+00 2.7741460145437859e-02 0.0000000000000000e+00  0.0000000000000000e+00 2.8118796080227094e-02 0.0000000000000000e+00  0.0000000000000000e+00 2.8496128005889361e-02 0.0000000000000000e+00  0.0000000000000000e+00 2.8873455868625358e-02 0.0000000000000000e+00  0.0000000000000000e+00 2.9250779614636378e-02 0.0000000000000000e+00  0.0000000000000000e+00 2.9628099190124272e-02 0.0000000000000000e+00  0.0000000000000000e+00 3.0005414541291499e-02 0.0000000000000000e+00  0.0000000000000000e+00 3.0382725614341133e-02 0.0000000000000000e+00  0.0000000000000000e+00 3.0760032355476828e-02 0.0000000000000000e+00  0.0000000000000000e+00 3.1137334710902888e-02 0.0000000000000000e+00  0.0000000000000000e+00 3.1514632626824211e-02 0.0000000000000000e+00  0.0000000000000000e+00 3.1891926049446365e-02 0.0000000000000000e+00  0.0000000000000000e+00 3.2269214924975517e-02 0.0000000000000000e+00  0.0000000000000000e+00 3.2646499199618512e-02 0.0000000000000000e+00  0.0000000000000000e+00 3.3023778819582857e-02 0.0000000000000000e+00  0.0000000000000000e+00 3.3401053731076678e-02 0.0000000000000000e+00  0.0000000000000000e+00 3.3778323880308825e-02 0.0000000000000000e+00  0.0000000000000000e+00 3.4155589213488796e-02 0.0000000000000000e+00  0.0000000000000000e+00 3.4532849676826793e-02 0.0000000000000000e+00  0.0000000000000000e+00 3.4910105216533677e-02 0.0000000000000000e+00  0.0000000000000000e+00 3.5287355778821070e-02 0.0000000000000000e+00  0.0000000000000000e+00 3.5664601309901248e-02 0.0000000000000000e+00  0.0000000000000000e+00 3.6041841755987243e-02 0.0000000000000000e+00  0.0000000000000000e+00 3.6419077063292782e-02 0.0000000000000000e+00  0.0000000000000000e+00 3.6796307178032353e-02 0.0000000000000000e+00  0.0000000000000000e+00 3.7173532046421154e-02 0.0000000000000000e+00  0.0000000000000000e+00 3.7550751614675158e-02 0.0000000000000000e+00  0.0000000000000000e+00 3.7927965829011083e-02 0.0000000000000000e+00  0.0000000000000000e+00 3.8305174635646408e-02 0.0000000000000000e+00  0.0000000000000000e+00 3.8682377980799376e-02 0.0000000000000000e+00  0.0000000000000000e+00 3.9059575810689043e-02 0.0000000000000000e+00  0.0000000000000000e+00 3.9436768071535198e-02 0.0000000000000000e+00  0.0000000000000000e+00 3.9813954709558466e-02 0.0000000000000000e+00  0.0000000000000000e+00 4.0191135670980267e-02 0.0000000000000000e+00  0.0000000000000000e+00 4.0568310902022814e-02 0.0000000000000000e+00  0.0000000000000000e+00 4.0945480348909130e-02 0.0000000000000000e+00  0.0000000000000000e+00 4.1322643957863114e-02 0.0000000000000000e+00  0.0000000000000000e+00 4.1699801675109449e-02 0.0000000000000000e+00  0.0000000000000000e+00 4.2076953446873656e-02 0.0000000000000000e+00  0.0000000000000000e+00 4.2454099219382133e-02 0.0000000000000000e+00  0.0000000000000000e+00 4.2831238938862128e-02 0.0000000000000000e+00  0.0000000000000000e+00 4.3208372551541731e-02 0.0000000000000000e+00  0.0000000000000000e+00 4.3585500003649899e-02 0.0000000000000000e+00  0.0000000000000000e+00 4.3962621241416519e-02 0.0000000000000000e+00  0.0000000000000000e+00 4.4339736211072303e-02 0.0000000000000000e+00  0.0000000000000000e+00 4.4716844858848893e-02 0.0000000000000000e+00  0.0000000000000000e+00 4.5093947130978820e-02 0.0000000000000000e+00  0.0000000000000000e+00 4.5471042973695530e-02 0.0000000000000000e+00  0.0000000000000000e+00 4.5848132333233371e-02 0.0000000000000000e+00  0.0000000000000000e+00 4.6225215155827629e-02 0.0000000000000000e+00  0.0000000000000000e+00 4.6602291387714545e-02 0.0000000000000000e+00  0.0000000000000000e+00 4.6979360975131224e-02 0.0000000000000000e+00  0.0000000000000000e+00 4.7356423864315801e-02 0.0000000000000000e+00  0.0000000000000000e+00 4.7733480001507331e-02 0.0000000000000000e+00  0.0000000000000000e+00 4.8110529332945830e-02 0.0000000000000000e+00  0.0000000000000000e+00 4.8487571804872287e-02 0.0000000000000000e+00  0.0000000000000000e+00 4.8864607363528656e-02 0.0000000000000000e+00  0.0000000000000000e+00 4.9241635955157917e-02 0.0000000000000000e+00  0.0000000000000000e+00 4.9618657526004008e-02 0.0000000000000000e+00  0.0000000000000000e+00 4.9995672022311866e-02 0.0000000000000000e+00  0.0000000000000000e+00 5.0372679390327448e-02 0.0000000000000000e+00  0.0000000000000000e+00 5.0749679576297738e-02 0.0000000000000000e+00  0.0000000000000000e+00 5.1126672526470726e-02 0.0000000000000000e+00  0.0000000000000000e+00 5.1503658187095458e-02 0.0000000000000000e+00  0.0000000000000000e+00 5.1880636504421970e-02 0.0000000000000000e+00  0.0000000000000000e+00 5.2257607424701411e-02 0.0000000000000000e+00  0.0000000000000000e+00 5.2634570894185939e-02 0.0000000000000000e+00  0.0000000000000000e+00 5.3011526859128758e-02 0.0000000000000000e+00  0.0000000000000000e+00 5.3388475265784205e-02 0.0000000000000000e+00  0.0000000000000000e+00 5.3765416060407648e-02 0.0000000000000000e+00  0.0000000000000000e+00 5.4142349189255562e-02 0.0000000000000000e+00  0.0000000000000000e+00 5.4519274598585479e-02 0.0000000000000000e+00  0.0000000000000000e+00 5.4896192234656083e-02 0.0000000000000000e+00  0.0000000000000000e+00 5.5273102043727124e-02 0.0000000000000000e+00  0.0000000000000000e+00 5.5650003972059492e-02 0.0000000000000000e+00  0.0000000000000000e+00 5.6026897965915201e-02 0.0000000000000000e+00  0.0000000000000000e+00 5.6403783971557382e-02 0.0000000000000000e+00  0.0000000000000000e+00 5.6780661935250311e-02 0.0000000000000000e+00  0.0000000000000000e+00 5.7157531803259394e-02 0.0000000000000000e+00  0.0000000000000000e+00 5.7534393521851246e-02 0.0000000000000000e+00  0.0000000000000000e+00 5.7911247037293570e-02 0.0000000000000000e+00  0.0000000000000000e+00 5.8288092295855312e-02 0.0000000000000000e+00  0.0000000000000000e+00 5.8664929243806521e-02 0.0000000000000000e+00  0.0000000000000000e+00 5.9041757827418495e-02 0.0000000000000000e+00  0.0000000000000000e+00 5.9418577992963684e-02 0.0000000000000000e+00  0.0000000000000000e+00 5.9795389686715751e-02 0.0000000000000000e+00  0.0000000000000000e+00 6.0172192854949569e-02 0.0000000000000000e+00  0.0000000000000000e+00 6.0548987443941230e-02 0.0000000000000000e+00  0.0000000000000000e+00 6.0925773399968054e-02 0.0000000000000000e+00  0.0000000000000000e+00 6.1302550669308564e-02 0.0000000000000000e+00  0.0000000000000000e+00 6.1679319198242551e-02 0.0000000000000000e+00  0.0000000000000000e+00 6.2056078933051040e-02 0.0000000000000000e+00  0.0000000000000000e+00 6.2432829820016307e-02 0.0000000000000000e+00  0.0000000000000000e+00 6.2809571805421877e-02 0.0000000000000000e+00  0.0000000000000000e+00 6.3186304835552612e-02 0.0000000000000000e+00  0.0000000000000000e+00 6.3563028856694570e-02 0.0000000000000000e+00  0.0000000000000000e+00 6.3939743815135092e-02 0.0000000000000000e+00  0.0000000000000000e+00 6.4316449657162891e-02 0.0000000000000000e+00  0.0000000000000000e+00 6.4693146329067905e-02 0.0000000000000000e+00  0.0000000000000000e+00 6.5069833777141400e-02 0.0000000000000000e+00  0.0000000000000000e+00 6.5446511947675978e-02 0.0000000000000000e+00  0.0000000000000000e+00 6.5823180786965557e-02 0.0000000000000000e+00  0.0000000000000000e+00 6.6199840241305374e-02 0.0000000000000000e+00  0.0000000000000000e+00 6.6576490256991971e-02 0.0000000000000000e+00  0.0000000000000000e+00 6.6953130780323306e-02 0.0000000000000000e+00  0.0000000000000000e+00 6.7329761757598652e-02 0.0000000000000000e+00  0.0000000000000000e+00 6.7706383135118647e-02 0.0000000000000000e+00  0.0000000000000000e+00 6.8082994859185286e-02 0.0000000000000000e+00  0.0000000000000000e+00 6.8459596876101980e-02 0.0000000000000000e+00  0.0000000000000000e+00 6.8836189132173459e-02 0.0000000000000000e+00  0.0000000000000000e+00 6.9212771573705895e-02 0.0000000000000000e+00  0.0000000000000000e+00 6.9589344147006862e-02 0.0000000000000000e+00  0.0000000000000000e+00 6.9965906798385297e-02 0.0000000000000000e+00  0.0000000000000000e+00 7.0342459474151603e-02 0.0000000000000000e+00  0.0000000000000000e+00 7.0719002120617575e-02 0.0000000000000000e+00  0.0000000000000000e+00 7.1095534684096476e-02 0.0000000000000000e+00  0.0000000000000000e+00 7.1472057110902903e-02 0.0000000000000000e+00  0.0000000000000000e+00 7.1848569347353050e-02 0.0000000000000000e+00  0.0000000000000000e+00 7.2225071339764427e-02 0.0000000000000000e+00  2.8186922166753559e-04 7.2601563034456099e-02 0.0000000000000000e+00  0.0000000000000000e+00 7.2978044377748547e-02 0.0000000000000000e+00  0.0000000000000000e+00 7.3354515315963736e-02 0.0000000000000000e+00  0.0000000000000000e+00 7.3730975795425133e-02 0.0000000000000000e+00  0.0000000000000000e+00 7.4107425762457685e-02 0.0000000000000000e+00  0.0000000000000000e+00 7.4483865163387841e-02 0.0000000000000000e+00  0.0000000000000000e+00 7.4860293944543535e-02 0.0000000000000000e+00  0.0000000000000000e+00 7.5236712052254254e-02 0.0000000000000000e+00  0.0000000000000000e+00 7.5613119432850998e-02 0.0000000000000000e+00  0.0000000000000000e+00 7.5989516032666252e-02 0.0000000000000000e+00  0.0000000000000000e+00 7.6365901798034097e-02 0.0000000000000000e+00  0.0000000000000000e+00 7.6742276675290128e-02 0.0000000000000000e+00  0.0000000000000000e+00 7.7118640610771477e-02 0.0000000000000000e+00  0.0000000000000000e+00 7.7494993550816876e-02 0.0000000000000000e+00  0.0000000000000000e+00 7.7871335441766623e-02 0.0000000000000000e+00  0.0000000000000000e+00 7.8247666229962543e-02 0.0000000000000000e+00  0.0000000000000000e+00 7.8623985861748069e-02 0.0000000000000000e+00  0.0000000000000000e+00 7.9000294283468248e-02 0.0000000000000000e+00  0.0000000000000000e+00 7.9376591441469718e-02 0.0000000000000000e+00  0.0000000000000000e+00 7.9752877282100690e-02 0.0000000000000000e+00  0.0000000000000000e+00 8.0129151751711009e-02 0.0000000000000000e+00  0.0000000000000000e+00 8.0505414796652186e-02 0.0000000000000000e+00  0.0000000000000000e+00 8.0881666363277260e-02 0.0000000000000000e+00  0.0000000000000000e+00 8.1257906397941004e-02 0.0000000000000000e+00  0.0000000000000000e+00 8.1634134846999773e-02 0.0000000000000000e+00  0.0000000000000000e+00 8.2010351656811614e-02 0.0000000000000000e+00  0.0000000000000000e+00 8.2386556773736214e-02 0.0000000000000000e+00  0.0000000000000000e+00 8.2762750144134922e-02 0.0000000000000000e+00  0.0000000000000000e+00 8.3138931714370784e-02 0.0000000000000000e+00  0.0000000000000000e+00 8.3515101430808480e-02 0.0000000000000000e+00  0.0000000000000000e+00 8.3891259239814456e-02 0.0000000000000000e+00  0.0000000000000000e+00 8.4267405087756778e-02 0.0000000000000000e+00  0.0000000000000000e+00 8.4643538921005290e-02 0.0000000000000000e+00  0.0000000000000000e+00 8.5019660685931475e-02 0.0000000000000000e+00  0.0000000000000000e+00 8.5395770328908577e-02 0.0000000000000000e+00  0.0000000000000000e+00 8.5771867796311602e-02 0.0000000000000000e+00  0.0000000000000000e+00 8.6147953034517222e-02 0.0000000000000000e+00  0.0000000000000000e+00 8.6524025989903899e-02 0.0000000000000000e+00  0.0000000000000000e+00 8.6900086608851818e-02 0.0000000000000000e+00  0.0000000000000000e+00 8.7276134837742950e-02 0.0000000000000000e+00  0.0000000000000000e+00 8.7652170622961045e-02 0.0000000000000000e+00  0.0000000000000000e+00 8.8028193910891533e-02 0.0000000000000000e+00  0.0000000000000000e+00 8.8404204647921758e-02 0.0000000000000000e+00  0.0000000000000000e+00 8.8780202780440770e-02 0.0000000000000000e+00  0.0000000000000000e+00 8.9156188254839452e-02 0.0000000000000000e+00  0.0000000000000000e+00 8.9532161017510450e-02 0.0000000000000000e+00  0.0000000000000000e+00 8.9908121014848255e-02 0.0000000000000000e+00  0.0000000000000000e+00 9.0284068193249190e-02 0.0000000000000000e+00  0.0000000000000000e+00 9.0660002499111395e-02 0.0000000000000000e+00  0.0000000000000000e+00 9.1035923878834774e-02 0.0000000000000000e+00  0.0000000000000000e+00 9.1411832278821228e-02 0.0000000000000000e+00  0.0000000000000000e+00 9.1787727645474382e-02 0.0000000000000000e+00  0.0000000000000000e+00 9.2163609925199702e-02 0.0000000000000000e+00  0.0000000000000000e+00 9.2539479064404656e-02 0.0000000000000000e+00  0.0000000000000000e+00 9.2915335009498473e-02 0.0000000000000000e+00  0.0000000000000000e+00 9.3291177706892284e-02 0.0000000000000000e+00  0.0000000000000000e+00 9.3667007102999106e-02 0.0000000000000000e+00  0.0000000000000000e+00 9.4042823144233914e-02 0.0000000000000000e+00  0.0000000000000000e+00 9.4418625777013460e-02 0.0000000000000000e+00  0.0000000000000000e+00 9.4794414947756603e-02 0.0000000000000000e+00  0.0000000000000000e+00 9.5170190602883897e-02 0.0000000000000000e+00  0.0000000000000000e+00 9.5545952688817964e-02 0.0000000000000000e+00  0.0000000000000000e+00 9.5921701151983355e-02 0.0000000000000000e+00  0.0000000000000000e+00 9.6297435938806492e-02 0.0000000000000000e+00  0.0000000000000000e+00 9.6673156995715839e-02 0.0000000000000000e+00  0.0000000000000000e+00 9.7048864269141721e-02 0.0000000000000000e+00  0.0000000000000000e+00 9.7424557705516501e-02 0.0000000000000000e+00  0.0000000000000000e+00 9.7800237251274472e-02 0.0000000000000000e+00  0.0000000000000000e+00 9.8175902852851937e-02 0.0000000000000000e+00  0.0000000000000000e+00 9.8551554456687201e-02 0.0000000000000000e+00  0.0000000000000000e+00 9.8927192009220510e-02 0.0000000000000000e+00  0.0000000000000000e+00 9.9302815456894122e-02 0.0000000000000000e+00  0.0000000000000000e+00 9.9678424746152364e-02 0.0000000000000000e+00  0.0000000000000000e+00 1.0005401982344156e-01 0.0000000000000000e+00  0.0000000000000000e+00 1.0042960063521000e-01 0.0000000000000000e+00  0.0000000000000000e+00 1.0080516712790807e-01 0.0000000000000000e+00  0.0000000000000000e+00 1.0118071924798819e-01 0.0000000000000000e+00  0.0000000000000000e+00 1.0155625694190480e-01 0.0000000000000000e+00  0.0000000000000000e+00 1.0193178015611444e-01 0.0000000000000000e+00  0.0000000000000000e+00 1.0230728883707570e-01 0.0000000000000000e+00  0.0000000000000000e+00 1.0268278293124918e-01 0.0000000000000000e+00  0.0000000000000000e+00 1.0305826238509766e-01 0.0000000000000000e+00  0.0000000000000000e+00 1.0343372714508593e-01 0.0000000000000000e+00  0.0000000000000000e+00 1.0380917715768093e-01 0.0000000000000000e+00  0.0000000000000000e+00 1.0418461236935167e-01 0.0000000000000000e+00  0.0000000000000000e+00 1.0456003272656929e-01 0.0000000000000000e+00  0.0000000000000000e+00 1.0493543817580700e-01 0.0000000000000000e+00  0.0000000000000000e+00 1.0531082866354020e-01 0.0000000000000000e+00  0.0000000000000000e+00 1.0568620413624641e-01 0.0000000000000000e+00  0.0000000000000000e+00 1.0606156454040523e-01 0.0000000000000000e+00  0.0000000000000000e+00 1.0643690982249850e-01 0.0000000000000000e+00  0.0000000000000000e+00 1.0681223992901012e-01 0.0000000000000000e+00  0.0000000000000000e+00 1.0718755480642628e-01 0.0000000000000000e+00  0.0000000000000000e+00 1.0756285440123517e-01 0.0000000000000000e+00  0.0000000000000000e+00 1.0793813865992735e-01 0.0000000000000000e+00  0.0000000000000000e+00 1.0831340752899539e-01 0.0000000000000000e+00  0.0000000000000000e+00 1.0868866095493418e-01 0.0000000000000000e+00  0.0000000000000000e+00 1.0906389888424074e-01 0.0000000000000000e+00  0.0000000000000000e+00 1.0943912126341437e-01 0.0000000000000000e+00  0.0000000000000000e+00 1.0981432803895648e-01 0.0000000000000000e+00  0.0000000000000000e+00 1.1018951915737085e-01 0.0000000000000000e+00  0.0000000000000000e+00 1.1056469456516334e-01 0.0000000000000000e+00  0.0000000000000000e+00 1.1093985420884214e-01 0.0000000000000000e+00  0.0000000000000000e+00 1.1131499803491769e-01 0.0000000000000000e+00  0.0000000000000000e+00 1.1169012598990265e-01 0.0000000000000000e+00  0.0000000000000000e+00 1.1206523802031194e-01 0.0000000000000000e+00  0.0000000000000000e+00 1.1244033407266277e-01 0.0000000000000000e+00  0.0000000000000000e+00 1.1281541409347465e-01 0.0000000000000000e+00  0.0000000000000000e+00 1.1319047802926936e-01 0.0000000000000000e+00  0.0000000000000000e+00 1.1356552582657090e-01 0.0000000000000000e+00  0.0000000000000000e+00 1.1394055743190568e-01 0.0000000000000000e+00  0.0000000000000000e+00 1.1431557279180238e-01 0.0000000000000000e+00  0.0000000000000000e+00 1.1469057185279198e-01 0.0000000000000000e+00  0.0000000000000000e+00 1.1506555456140778e-01 0.0000000000000000e+00  0.0000000000000000e+00 1.1544052086418545e-01 0.0000000000000000e+00  0.0000000000000000e+00 1.1581547070766296e-01 0.0000000000000000e+00  0.0000000000000000e+00 1.1619040403838066e-01 0.0000000000000000e+00  0.0000000000000000e+00 1.1656532080288118e-01 0.0000000000000000e+00  0.0000000000000000e+00 1.1694022094770964e-01 0.0000000000000000e+00  0.0000000000000000e+00 1.1731510441941341e-01 0.0000000000000000e+00  0.0000000000000000e+00 1.1768997116454229e-01 0.0000000000000000e+00  0.0000000000000000e+00 1.1806482112964847e-01 0.0000000000000000e+00  0.0000000000000000e+00 1.1843965426128651e-01 0.0000000000000000e+00  0.0000000000000000e+00 1.1881447050601342e-01 0.0000000000000000e+00  0.0000000000000000e+00 1.1918926981038853e-01 0.0000000000000000e+00  0.0000000000000000e+00 1.1956405212097365e-01 0.0000000000000000e+00  0.0000000000000000e+00 1.1993881738433301e-01 0.0000000000000000e+00  0.0000000000000000e+00 1.2031356554703328e-01 0.0000000000000000e+00  0.0000000000000000e+00 1.2068829655564346e-01 0.0000000000000000e+00  2.8020147997004363e-04 1.2106301035673517e-01 0.0000000000000000e+00  0.0000000000000000e+00 1.2143770689688235e-01 0.0000000000000000e+00  0.0000000000000000e+00 1.2181238612266149e-01 0.0000000000000000e+00  0.0000000000000000e+00 1.2218704798065146e-01 0.0000000000000000e+00  0.0000000000000000e+00 1.2256169241743366e-01 0.0000000000000000e+00  0.0000000000000000e+00 1.2293631937959196e-01 0.0000000000000000e+00  0.0000000000000000e+00 1.2331092881371276e-01 0.0000000000000000e+00  0.0000000000000000e+00 1.2368552066638490e-01 0.0000000000000000e+00  0.0000000000000000e+00 1.2406009488419978e-01 0.0000000000000000e+00  0.0000000000000000e+00 1.2443465141375126e-01 0.0000000000000000e+00  0.0000000000000000e+00 1.2480919020163575e-01 0.0000000000000000e+00  0.0000000000000000e+00 1.2518371119445218e-01 0.0000000000000000e+00  0.0000000000000000e+00 1.2555821433880204e-01 0.0000000000000000e+00  0.0000000000000000e+00 1.2593269958128939e-01 0.0000000000000000e+00  0.0000000000000000e+00 1.2630716686852073e-01 0.0000000000000000e+00  0.0000000000000000e+00 1.2668161614710524e-01 0.0000000000000000e+00  0.0000000000000000e+00 1.2705604736365461e-01 0.0000000000000000e+00  0.0000000000000000e+00 1.2743046046478310e-01 0.0000000000000000e+00  0.0000000000000000e+00 1.2780485539710759e-01 0.0000000000000000e+00  0.0000000000000000e+00 1.2817923210724752e-01 0.0000000000000000e+00  0.0000000000000000e+00 1.2855359054182494e-01 0.0000000000000000e+00  0.0000000000000000e+00 1.2892793064746449e-01 0.0000000000000000e+00  0.0000000000000000e+00 1.2930225237079346e-01 0.0000000000000000e+00  0.0000000000000000e+00 1.2967655565844174e-01 0.0000000000000000e+00  0.0000000000000000e+00 1.3005084045704185e-01 0.0000000000000000e+00  0.0000000000000000e+00 1.3042510671322888e-01 0.0000000000000000e+00  0.0000000000000000e+00 1.3079935437364071e-01 0.0000000000000000e+00  0.00000000