<?xml version="1.0"?>
<VTKFile type="UnstructuredGrid"  version="0.1"  >
<UnstructuredGrid>
<Piece  NumberOfPoints="4225" NumberOfCells="8192">
<Points>
<DataArray  type="Float64"  NumberOfComponents="3"  format="ascii">0 0 0  0.015625 0 0  0.03125 0 0  0.046875 0 0  0.0625 0 0  0.078125 0 0  0.09375 0 0  0.109375 0 0  0.125 0 0  0.140625 0 0  0.15625 0 0  0.171875 0 0  0.1875 0 0  0.203125 0 0  0.21875 0 0  0.234375 0 0  0.25 0 0  0.265625 0 0  0.28125 0 0  0.296875 0 0  0.3125 0 0  0.328125 0 0  0.34375 0 0  0.359375 0 0  0.375 0 0  0.390625 0 0  0.40625 0 0  0.421875 0 0  0.4375 0 0  0.453125 0 0  0.46875 0 0  0.484375 0 0  0.5 0 0  0.515625 0 0  0.53125 0 0  0.546875 0 0  0.5625 0 0  0.578125 0 0  0.59375 0 0  0.609375 0 0  0.625 0 0  0.640625 0 0  0.65625 0 0  0.671875 0 0  0.6875 0 0  0.703125 0 0  0.71875 0 0  0.734375 0 0  0.75 0 0  0.765625 0 0  0.78125 0 0  0.796875 0 0  0.8125 0 0  0.828125 0 0  0.84375 0 0  0.859375 0 0  0.875 0 0  0.890625 0 0  0.90625 0 0  0.921875 0 0  0.9375 0 0  0.953125 0 0  0.96875 0 0  0.984375 0 0  1 0 0  0 0.0234375 0  0.015625 0.0234375 0  0.03125 0.0234375 0  0.046875 0.0234375 0  0.0625 0.0234375 0  0.078125 0.0234375 0  0.09375 0.0234375 0  0.109375 0.0234375 0  0.125 0.0234375 0  0.140625 0.0234375 0  0.15625 0.0234375 0  0.171875 0.0234375 0  0.1875 0.0234375 0  0.203125 0.0234375 0  0.21875 0.0234375 0  0.234375 0.0234375 0  0.25 0.0234375 0  0.265625 0.0234375 0  0.28125 0.0234375 0  0.296875 0.0234375 0  0.3125 0.0234375 0  0.328125 0.0234375 0  0.34375 0.0234375 0  0.359375 0.0234375 0  0.375 0.0234375 0  0.390625 0.0234375 0  0.40625 0.0234375 0  0.421875 0.0234375 0  0.4375 0.0234375 0  0.453125 0.0234375 0  0.46875 0.0234375 0  0.484375 0.0234375 0  0.5 0.0234375 0  0.515625 0.0234375 0  0.53125 0.0234375 0  0.546875 0.0234375 0  0.5625 0.0234375 0  0.578125 0.0234375 0  0.59375 0.0234375 0  0.609375 0.0234375 0  0.625 0.0234375 0  0.640625 0.0234375 0  0.65625 0.0234375 0  0.671875 0.0234375 0  0.6875 0.0234375 0  0.703125 0.0234375 0  0.71875 0.0234375 0  0.734375 0.0234375 0  0.75 0.0234375 0  0.765625 0.0234375 0  0.78125 0.0234375 0  0.796875 0.0234375 0  0.8125 0.0234375 0  0.828125 0.0234375 0  0.84375 0.0234375 0  0.859375 0.0234375 0  0.875 0.0234375 0  0.890625 0.0234375 0  0.90625 0.0234375 0  0.921875 0.0234375 0  0.9375 0.0234375 0  0.953125 0.0234375 0  0.96875 0.0234375 0  0.984375 0.0234375 0  1 0.0234375 0  0 0.046875 0  0.015625 0.046875 0  0.03125 0.046875 0  0.046875 0.046875 0  0.0625 0.046875 0  0.078125 0.046875 0  0.09375 0.046875 0  0.109375 0.046875 0  0.125 0.046875 0  0.140625 0.046875 0  0.15625 0.046875 0  0.171875 0.046875 0  0.1875 0.046875 0  0.203125 0.046875 0  0.21875 0.046875 0  0.234375 0.046875 0  0.25 0.046875 0  0.265625 0.046875 0  0.28125 0.046875 0  0.296875 0.046875 0  0.3125 0.046875 0  0.328125 0.046875 0  0.34375 0.046875 0  0.359375 0.046875 0  0.375 0.046875 0  0.390625 0.046875 0  0.40625 0.046875 0  0.421875 0.046875 0  0.4375 0.046875 0  0.453125 0.046875 0  0.46875 0.046875 0  0.484375 0.046875 0  0.5 0.046875 0  0.515625 0.046875 0  0.53125 0.046875 0  0.546875 0.046875 0  0.5625 0.046875 0  0.578125 0.046875 0  0.59375 0.046875 0  0.609375 0.046875 0  0.625 0.046875 0  0.640625 0.046875 0  0.65625 0.046875 0  0.671875 0.046875 0  0.6875 0.046875 0  0.703125 0.046875 0  0.71875 0.046875 0  0.734375 0.046875 0  0.75 0.046875 0  0.765625 0.046875 0  0.78125 0.046875 0  0.796875 0.046875 0  0.8125 0.046875 0  0.828125 0.046875 0  0.84375 0.046875 0  0.859375 0.046875 0  0.875 0.046875 0  0.890625 0.046875 0  0.90625 0.046875 0  0.921875 0.046875 0  0.9375 0.046875 0  0.953125 0.046875 0  0.96875 0.046875 0  0.984375 0.046875 0  1 0.046875 0  0 0.0703125 0  0.015625 0.0703125 0  0.03125 0.0703125 0  0.046875 0.0703125 0  0.0625 0.0703125 0  0.078125 0.0703125 0  0.09375 0.0703125 0  0.109375 0.0703125 0  0.125 0.0703125 0  0.140625 0.0703125 0  0.15625 0.0703125 0  0.171875 0.0703125 0  0.1875 0.0703125 0  0.203125 0.0703125 0  0.21875 0.0703125 0  0.234375 0.0703125 0  0.25 0.0703125 0  0.265625 0.0703125 0  0.28125 0.0703125 0  0.296875 0.0703125 0  0.3125 0.0703125 0  0.328125 0.0703125 0  0.34375 0.0703125 0  0.359375 0.0703125 0  0.375 0.0703125 0  0.390625 0.0703125 0  0.40625 0.0703125 0  0.421875 0.0703125 0  0.4375 0.0703125 0  0.453125 0.0703125 0  0.46875 0.0703125 0  0.484375 0.0703125 0  0.5 0.0703125 0  0.515625 0.0703125 0  0.53125 0.0703125 0  0.546875 0.0703125 0  0.5625 0.0703125 0  0.578125 0.0703125 0  0.59375 0.0703125 0  0.609375 0.0703125 0  0.625 0.0703125 0  0.640625 0.0703125 0  0.65625 0.0703125 0  0.671875 0.0703125 0  0.6875 0.0703125 0  0.703125 0.0703125 0  0.71875 0.0703125 0  0.734375 0.0703125 0  0.75 0.0703125 0  0.765625 0.0703125 0  0.78125 0.0703125 0  0.796875 0.0703125 0  0.8125 0.0703125 0  0.828125 0.0703125 0  0.84375 0.0703125 0  0.859375 0.0703125 0  0.875 0.0703125 0  0.890625 0.0703125 0  0.90625 0.0703125 0  0.921875 0.0703125 0  0.9375 0.0703125 0  0.953125 0.0703125 0  0.96875 0.0703125 0  0.984375 0.0703125 0  1 0.0703125 0  0 0.09375 0  0.015625 0.09375 0  0.03125 0.09375 0  0.046875 0.09375 0  0.0625 0.09375 0  0.078125 0.09375 0  0.09375 0.09375 0  0.109375 0.09375 0  0.125 0.09375 0  0.140625 0.09375 0  0.15625 0.09375 0  0.171875 0.09375 0  0.1875 0.09375 0  0.203125 0.09375 0  0.21875 0.09375 0  0.234375 0.09375 0  0.25 0.09375 0  0.265625 0.09375 0  0.28125 0.09375 0  0.296875 0.09375 0  0.3125 0.09375 0  0.328125 0.09375 0  0.34375 0.09375 0  0.359375 0.09375 0  0.375 0.09375 0  0.390625 0.09375 0  0.40625 0.09375 0  0.421875 0.09375 0  0.4375 0.09375 0  0.453125 0.09375 0  0.46875 0.09375 0  0.484375 0.09375 0  0.5 0.09375 0  0.515625 0.09375 0  0.53125 0.09375 0  0.546875 0.09375 0  0.5625 0.09375 0  0.578125 0.09375 0  0.59375 0.09375 0  0.609375 0.09375 0  0.625 0.09375 0  0.640625 0.09375 0  0.65625 0.09375 0  0.671875 0.09375 0  0.6875 0.09375 0  0.703125 0.09375 0  0.71875 0.09375 0  0.734375 0.09375 0  0.75 0.09375 0  0.765625 0.09375 0  0.78125 0.09375 0  0.796875 0.09375 0  0.8125 0.09375 0  0.828125 0.09375 0  0.84375 0.09375 0  0.859375 0.09375 0  0.875 0.09375 0  0.890625 0.09375 0  0.90625 0.09375 0  0.921875 0.09375 0  0.9375 0.09375 0  0.953125 0.09375 0  0.96875 0.09375 0  0.984375 0.09375 0  1 0.09375 0  0 0.1171875 0  0.015625 0.1171875 0  0.03125 0.1171875 0  0.046875 0.1171875 0  0.0625 0.1171875 0  0.078125 0.1171875 0  0.09375 0.1171875 0  0.109375 0.1171875 0  0.125 0.1171875 0  0.140625 0.1171875 0  0.15625 0.1171875 0  0.171875 0.1171875 0  0.1875 0.1171875 0  0.203125 0.1171875 0  0.21875 0.1171875 0  0.234375 0.1171875 0  0.25 0.1171875 0  0.265625 0.1171875 0  0.28125 0.1171875 0  0.296875 0.1171875 0  0.3125 0.1171875 0  0.328125 0.1171875 0  0.34375 0.1171875 0  0.359375 0.1171875 0  0.375 0.1171875 0  0.390625 0.1171875 0  0.40625 0.1171875 0  0.421875 0.1171875 0  0.4375 0.1171875 0  0.453125 0.1171875 0  0.46875 0.1171875 0  0.484375 0.1171875 0  0.5 0.1171875 0  0.515625 0.1171875 0  0.53125 0.1171875 0  0.546875 0.1171875 0  0.5625 0.1171875 0  0.578125 0.1171875 0  0.59375 0.1171875 0  0.609375 0.1171875 0  0.625 0.1171875 0  0.640625 0.1171875 0  0.65625 0.1171875 0  0.671875 0.1171875 0  0.6875 0.1171875 0  0.703125 0.1171875 0  0.71875 0.1171875 0  0.734375 0.1171875 0  0.75 0.1171875 0  0.765625 0.1171875 0  0.78125 0.1171875 0  0.796875 0.1171875 0  0.8125 0.1171875 0  0.828125 0.1171875 0  0.84375 0.1171875 0  0.859375 0.1171875 0  0.875 0.1171875 0  0.890625 0.1171875 0  0.90625 0.1171875 0  0.921875 0.1171875 0  0.9375 0.1171875 0  0.953125 0.1171875 0  0.96875 0.1171875 0  0.984375 0.1171875 0  1 0.1171875 0  0 0.140625 0  0.015625 0.140625 0  0.03125 0.140625 0  0.046875 0.140625 0  0.0625 0.140625 0  0.078125 0.140625 0  0.09375 0.140625 0  0.109375 0.140625 0  0.125 0.140625 0  0.140625 0.140625 0  0.15625 0.140625 0  0.171875 0.140625 0  0.1875 0.140625 0  0.203125 0.140625 0  0.21875 0.140625 0  0.234375 0.140625 0  0.25 0.140625 0  0.265625 0.140625 0  0.28125 0.140625 0  0.296875 0.140625 0  0.3125 0.140625 0  0.328125 0.140625 0  0.34375 0.140625 0  0.359375 0.140625 0  0.375 0.140625 0  0.390625 0.140625 0  0.40625 0.140625 0  0.421875 0.140625 0  0.4375 0.140625 0  0.453125 0.140625 0  0.46875 0.140625 0  0.484375 0.140625 0  0.5 0.140625 0  0.515625 0.140625 0  0.53125 0.140625 0  0.546875 0.140625 0  0.5625 0.140625 0  0.578125 0.140625 0  0.59375 0.140625 0  0.609375 0.140625 0  0.625 0.140625 0  0.640625 0.140625 0  0.65625 0.140625 0  0.671875 0.140625 0  0.6875 0.140625 0  0.703125 0.140625 0  0.71875 0.140625 0  0.734375 0.140625 0  0.75 0.140625 0  0.765625 0.140625 0  0.78125 0.140625 0  0.796875 0.140625 0  0.8125 0.140625 0  0.828125 0.140625 0  0.84375 0.140625 0  0.859375 0.140625 0  0.875 0.140625 0  0.890625 0.140625 0  0.90625 0.140625 0  0.921875 0.140625 0  0.9375 0.140625 0  0.953125 0.140625 0  0.96875 0.140625 0  0.984375 0.140625 0  1 0.140625 0  0 0.1640625 0  0.015625 0.1640625 0  0.03125 0.1640625 0  0.046875 0.1640625 0  0.0625 0.1640625 0  0.078125 0.1640625 0  0.09375 0.1640625 0  0.109375 0.1640625 0  0.125 0.1640625 0  0.140625 0.1640625 0  0.15625 0.1640625 0  0.171875 0.1640625 0  0.1875 0.1640625 0  0.203125 0.1640625 0  0.21875 0.1640625 0  0.234375 0.1640625 0  0.25 0.1640625 0  0.265625 0.1640625 0  0.28125 0.1640625 0  0.296875 0.1640625 0  0.3125 0.1640625 0  0.328125 0.1640625 0  0.34375 0.1640625 0  0.359375 0.1640625 0  0.375 0.1640625 0  0.390625 0.1640625 0  0.40625 0.1640625 0  0.421875 0.1640625 0  0.4375 0.1640625 0  0.453125 0.1640625 0  0.46875 0.1640625 0  0.484375 0.1640625 0  0.5 0.1640625 0  0.515625 0.1640625 0  0.53125 0.1640625 0  0.546875 0.1640625 0  0.5625 0.1640625 0  0.578125 0.1640625 0  0.59375 0.1640625 0  0.609375 0.1640625 0  0.625 0.1640625 0  0.640625 0.1640625 0  0.65625 0.1640625 0  0.671875 0.1640625 0  0.6875 0.1640625 0  0.703125 0.1640625 0  0.71875 0.1640625 0  0.734375 0.1640625 0  0.75 0.1640625 0  0.765625 0.1640625 0  
[...]
<PointData  Vectors="f_303"> 
<DataArray  type="Float64"  Name="f_303"  NumberOfComponents="3" format="ascii">7.4374798651781157e-04 0.0000000000000000e+00 0.0000000000000000e+00  2.2312423139028040e-03 0.0000000000000000e+00 0.0000000000000000e+00  3.7187317043395453e-03 0.0000000000000000e+00 0.0000000000000000e+00  5.2062128665413387e-03 0.0000000000000000e+00 0.0000000000000000e+00  6.6936825092396924e-03 0.0000000000000000e+00 0.0000000000000000e+00  8.1811373411916060e-03 0.0000000000000000e+00 0.0000000000000000e+00  9.6685740711868473e-03 0.0000000000000000e+00 0.0000000000000000e+00  1.1155989408055240e-02 0.0000000000000000e+00 0.0000000000000000e+00  1.2643380060673941e-02 0.0000000000000000e+00 0.0000000000000000e+00  1.4130742737974725e-02 0.0000000000000000e+00 0.0000000000000000e+00  1.5618074148951264e-02 0.0000000000000000e+00 0.0000000000000000e+00  1.7105371002666420e-02 0.0000000000000000e+00 0.0000000000000000e+00  1.8592630008259507e-02 0.0000000000000000e+00 0.0000000000000000e+00  2.0079847874953587e-02 0.0000000000000000e+00 0.0000000000000000e+00  2.1567021312062753e-02 0.0000000000000000e+00 0.0000000000000000e+00  2.3054147028999397e-02 0.0000000000000000e+00 0.0000000000000000e+00  2.4541221735281511e-02 0.0000000000000000e+00 0.0000000000000000e+00  2.6028242140539937e-02 0.0000000000000000e+00 0.0000000000000000e+00  2.7515204954525682e-02 0.0000000000000000e+00 0.0000000000000000e+00  2.9002106887117171e-02 0.0000000000000000e+00 0.0000000000000000e+00  3.0488944648327552e-02 0.0000000000000000e+00 0.0000000000000000e+00  3.1975714948311945e-02 0.0000000000000000e+00 0.0000000000000000e+00  3.3462414497374748e-02 0.0000000000000000e+00 0.0000000000000000e+00  3.4949040005976907e-02 0.0000000000000000e+00 0.0000000000000000e+00  3.6435588184743184e-02 0.0000000000000000e+00 0.0000000000000000e+00  3.7922055744469454e-02 0.0000000000000000e+00 0.0000000000000000e+00  3.9408439396129966e-02 0.0000000000000000e+00 0.0000000000000000e+00  4.0894735850884628e-02 0.0000000000000000e+00 0.0000000000000000e+00  4.2380941820086296e-02 0.0000000000000000e+00 0.0000000000000000e+00  4.3867054015288023e-02 0.0000000000000000e+00 0.0000000000000000e+00  4.5353069148250359e-02 0.0000000000000000e+00 0.0000000000000000e+00  4.6838983930948618e-02 0.0000000000000000e+00 0.0000000000000000e+00  4.8324795075580157e-02 0.0000000000000000e+00 0.0000000000000000e+00  4.9810499294571625e-02 0.0000000000000000e+00 0.0000000000000000e+00  5.1296093300586293e-02 0.0000000000000000e+00 0.0000000000000000e+00  5.2781573806531271e-02 0.0000000000000000e+00 0.0000000000000000e+00  5.4266937525564815e-02 0.0000000000000000e+00 0.0000000000000000e+00  5.5752181171103581e-02 0.0000000000000000e+00 0.0000000000000000e+00  5.7237301456829912e-02 0.0000000000000000e+00 0.0000000000000000e+00  5.8722295096699101e-02 0.0000000000000000e+00 0.0000000000000000e+00  6.0207158804946662e-02 0.0000000000000000e+00 0.0000000000000000e+00  6.1691889296095606e-02 0.0000000000000000e+00 0.0000000000000000e+00  6.3176483284963697e-02 0.0000000000000000e+00 0.0000000000000000e+00  6.4660937486670733e-02 0.0000000000000000e+00 0.0000000000000000e+00  6.6145248616645808e-02 0.0000000000000000e+00 0.0000000000000000e+00  6.7629413390634607e-02 0.0000000000000000e+00 0.0000000000000000e+00  6.9113428524706630e-02 0.0000000000000000e+00 0.0000000000000000e+00  7.0597290735262469e-02 0.0000000000000000e+00 0.0000000000000000e+00  7.2080996739041087e-02 0.0000000000000000e+00 0.0000000000000000e+00  7.3564543253127085e-02 0.0000000000000000e+00 0.0000000000000000e+00  7.5047926994957964e-02 0.0000000000000000e+00 0.0000000000000000e+00  7.6531144682331353e-02 0.0000000000000000e+00 0.0000000000000000e+00  7.8014193033412324e-02 0.0000000000000000e+00 0.0000000000000000e+00  7.9497068766740647e-02 0.0000000000000000e+00 0.0000000000000000e+00  8.0979768601237984e-02 0.0000000000000000e+00 0.0000000000000000e+00  8.2462289256215238e-02 0.0000000000000000e+00 0.0000000000000000e+00  8.3944627451379775e-02 0.0000000000000000e+00 0.0000000000000000e+00  8.5426779906842665e-02 0.0000000000000000e+00 0.0000000000000000e+00  8.6908743343125927e-02 0.0000000000000000e+00 0.0000000000000000e+00  8.8390514481169871e-02 0.0000000000000000e+00 0.0000000000000000e+00  8.9872090042340258e-02 0.0000000000000000e+00 0.0000000000000000e+00  9.1353466748435613e-02 0.0000000000000000e+00 0.0000000000000000e+00  9.2834641321694417e-02 0.0000000000000000e+00 0.0000000000000000e+00  9.4315610484802442e-02 0.0000000000000000e+00 0.0000000000000000e+00  1.4215364383229642e-01 0.0000000000000000e+00 0.0000000000000000e+00  9.7276919473588908e-02 0.0000000000000000e+00 0.0000000000000000e+00  9.8757252746940360e-02 0.0000000000000000e+00 0.0000000000000000e+00  1.0023736750550155e-01 0.0000000000000000e+00 0.0000000000000000e+00  1.0171726047430321e-01 0.0000000000000000e+00 0.0000000000000000e+00  1.0319692837886685e-01 0.0000000000000000e+00 0.0000000000000000e+00  1.0467636794521196e-01 0.0000000000000000e+00 0.0000000000000000e+00  1.0615557589986321e-01 0.0000000000000000e+00 0.0000000000000000e+00  1.0763454896985783e-01 0.0000000000000000e+00 0.0000000000000000e+00  1.0911328388275268e-01 0.0000000000000000e+00 0.0000000000000000e+00  1.1059177736663166e-01 0.0000000000000000e+00 0.0000000000000000e+00  1.1207002615011280e-01 0.0000000000000000e+00 0.0000000000000000e+00  1.1354802696235558e-01 0.0000000000000000e+00 0.0000000000000000e+00  1.1502577653306818e-01 0.0000000000000000e+00 0.0000000000000000e+00  1.1650327159251468e-01 0.0000000000000000e+00 0.0000000000000000e+00  1.1798050887152228e-01 0.0000000000000000e+00 0.0000000000000000e+00  1.1945748510148858e-01 0.0000000000000000e+00 0.0000000000000000e+00  1.2093419701438878e-01 0.0000000000000000e+00 0.0000000000000000e+00  1.2241064134278290e-01 0.0000000000000000e+00 0.0000000000000000e+00  1.2388681481982307e-01 0.0000000000000000e+00 0.0000000000000000e+00  1.2536271417926070e-01 0.0000000000000000e+00 0.0000000000000000e+00  1.2683833615545370e-01 0.0000000000000000e+00 0.0000000000000000e+00  1.2831367748337380e-01 0.0000000000000000e+00 0.0000000000000000e+00  1.2978873489861362e-01 0.0000000000000000e+00 0.0000000000000000e+00  1.3126350513739404e-01 0.0000000000000000e+00 0.0000000000000000e+00  1.3273798493657130e-01 0.0000000000000000e+00 0.0000000000000000e+00  1.3421217103364436e-01 0.0000000000000000e+00 0.0000000000000000e+00  1.3568606016676193e-01 0.0000000000000000e+00 0.0000000000000000e+00  1.3715964907472999e-01 0.0000000000000000e+00 0.0000000000000000e+00  1.3863293449701852e-01 0.0000000000000000e+00 0.0000000000000000e+00  1.4010591317376930e-01 0.0000000000000000e+00 0.0000000000000000e+00  1.4157858184580263e-01 0.0000000000000000e+00 0.0000000000000000e+00  1.4305093725462484e-01 0.0000000000000000e+00 0.0000000000000000e+00  1.4452297614243534e-01 0.0000000000000000e+00 0.0000000000000000e+00  1.4599469525213393e-01 0.0000000000000000e+00 0.0000000000000000e+00  1.4746609132732799e-01 0.0000000000000000e+00 0.0000000000000000e+00  1.4893716111233957e-01 0.0000000000000000e+00 0.0000000000000000e+00  1.5040790135221277e-01 0.0000000000000000e+00 0.0000000000000000e+00  1.5187830879272085e-01 0.0000000000000000e+00 0.0000000000000000e+00  1.5334838018037333e-01 0.0000000000000000e+00 0.0000000000000000e+00  1.5481811226242345e-01 0.0000000000000000e+00 0.0000000000000000e+00  1.5628750178687512e-01 0.0000000000000000e+00 0.0000000000000000e+00  1.5775654550249024e-01 0.0000000000000000e+00 0.0000000000000000e+00  1.5922524015879586e-01 0.0000000000000000e+00 0.0000000000000000e+00  1.6069358250609134e-01 0.0000000000000000e+00 0.0000000000000000e+00  1.6216156929545558e-01 0.0000000000000000e+00 0.0000000000000000e+00  1.6362919727875427e-01 0.0000000000000000e+00 0.0000000000000000e+00  1.6509646320864699e-01 0.0000000000000000e+00 0.0000000000000000e+00  1.6656336383859435e-01 0.0000000000000000e+00 0.0000000000000000e+00  1.6802989592286527e-01 0.0000000000000000e+00 0.0000000000000000e+00  1.6949605621654418e-01 0.0000000000000000e+00 0.0000000000000000e+00  1.7096184147553808e-01 0.0000000000000000e+00 0.0000000000000000e+00  1.7242724845658386e-01 0.0000000000000000e+00 0.0000000000000000e+00  1.7389227391725531e-01 0.0000000000000000e+00 0.0000000000000000e+00  1.7535691461597047e-01 0.0000000000000000e+00 0.0000000000000000e+00  1.7682116731199876e-01 0.0000000000000000e+00 0.0000000000000000e+00  1.7828502876546795e-01 0.0000000000000000e+00 0.0000000000000000e+00  1.7974849573737167e-01 0.0000000000000000e+00 0.0000000000000000e+00  1.8121156498957630e-01 0.0000000000000000e+00 0.0000000000000000e+00  1.8267423328482818e-01 0.0000000000000000e+00 0.0000000000000000e+00  1.8413649738676102e-01 0.0000000000000000e+00 0.0000000000000000e+00  1.8559835405990266e-01 0.0000000000000000e+00 0.0000000000000000e+00  1.8705980006968254e-01 0.0000000000000000e+00 0.0000000000000000e+00  1.8852083218243873e-01 0.0000000000000000e+00 0.0000000000000000e+00  1.8998144716542514e-01 0.0000000000000000e+00 0.0000000000000000e+00  2.3693556852957059e-01 0.0000000000000000e+00 0.0000000000000000e+00  1.9290141281572595e-01 0.0000000000000000e+00 0.0000000000000000e+00  1.9436075702219158e-01 0.0000000000000000e+00 0.0000000000000000e+00  1.9581967117720400e-01 0.0000000000000000e+00 0.0000000000000000e+00  1.9727815205270338e-01 0.0000000000000000e+00 0.0000000000000000e+00  1.9873619642158863e-01 0.0000000000000000e+00 0.0000000000000000e+00  2.0019380105772444e-01 0.0000000000000000e+00 0.0000000000000000e+00  2.0165096273594846e-01 0.0000000000000000e+00 0.0000000000000000e+00  2.0310767823207843e-01 0.0000000000000000e+00 0.0000000000000000e+00  2.0456394432291947e-01 0.0000000000000000e+00 0.0000000000000000e+00  2.0601975778627088e-01 0.0000000000000000e+00 0.0000000000000000e+00  2.0747511540093361e-01 0.0000000000000000e+00 0.0000000000000000e+00  2.0893001394671717e-01 0.0000000000000000e+00 0.0000000000000000e+00  2.1038445020444690e-01 0.0000000000000000e+00 0.0000000000000000e+00  2.1183842095597089e-01 0.0000000000000000e+00 0.0000000000000000e+00  2.1329192298416738e-01 0.0000000000000000e+00 0.0000000000000000e+00  2.1474495307295161e-01 0.0000000000000000e+00 0.0000000000000000e+00  2.1619750800728313e-01 0.0000000000000000e+00 0.0000000000000000e+00  2.1764958457317279e-01 0.0000000000000000e+00 0.0000000000000000e+00  2.1910117955768993e-01 0.0000000000000000e+00 0.0000000000000000e+00  2.2055228974896945e-01 0.0000000000000000e+00 0.0000000000000000e+00  2.2200291193621891e-01 0.0000000000000000e+00 0.0000000000000000e+00  2.2345304290972570e-01 0.0000000000000000e+00 0.0000000000000000e+00  2.2490267946086401e-01 0.0000000000000000e+00 0.0000000000000000e+00  2.2635181838210211e-01 0.0000000000000000e+00 0.0000000000000000e+00  2.2780045646700925e-01 0.0000000000000000e+00 0.0000000000000000e+00  2.2924859051026286e-01 0.0000000000000000e+00 0.0000000000000000e+00  2.3069621730765577e-01 0.0000000000000000e+00 0.0000000000000000e+00  2.3214333365610307e-01 0.0000000000000000e+00 0.0000000000000000e+00  2.3358993635364922e-01 0.0000000000000000e+00 0.0000000000000000e+00  2.3503602219947528e-01 0.0000000000000000e+00 0.0000000000000000e+00  2.3648158799390601e-01 0.0000000000000000e+00 0.0000000000000000e+00  2.3792663053841667e-01 0.0000000000000000e+00 0.0000000000000000e+00  2.3937114663564044e-01 0.0000000000000000e+00 0.0000000000000000e+00  2.4081513308937527e-01 0.0000000000000000e+00 0.0000000000000000e+00  2.4225858670459105e-01 0.0000000000000000e+00 0.0000000000000000e+00  2.4370150428743664e-01 0.0000000000000000e+00 0.0000000000000000e+00  2.4514388264524695e-01 0.0000000000000000e+00 0.0000000000000000e+00  2.4658571858654998e-01 0.0000000000000000e+00 0.0000000000000000e+00  2.4802700892107399e-01 0.0000000000000000e+00 0.0000000000000000e+00  2.4946775045975433e-01 0.0000000000000000e+00 0.0000000000000000e+00  2.5090794001474082e-01 0.0000000000000000e+00 0.0000000000000000e+00  2.5234757439940453e-01 0.0000000000000000e+00 0.0000000000000000e+00  2.5378665042834486e-01 0.0000000000000000e+00 0.0000000000000000e+00  2.5522516491739672e-01 0.0000000000000000e+00 0.0000000000000000e+00  2.5666311468363751e-01 0.0000000000000000e+00 0.0000000000000000e+00  2.5810049654539424e-01 0.0000000000000000e+00 0.0000000000000000e+00  2.5953730732225033e-01 0.0000000000000000e+00 0.0000000000000000e+00  2.6097354383505289e-01 0.0000000000000000e+00 0.0000000000000000e+00  2.6240920290591974e-01 0.0000000000000000e+00 0.0000000000000000e+00  2.6384428135824628e-01 0.0000000000000000e+00 0.0000000000000000e+00  2.6527877601671257e-01 0.0000000000000000e+00 0.0000000000000000e+00  2.6671268370729051e-01 0.0000000000000000e+00 0.0000000000000000e+00  2.6814600125725074e-01 0.0000000000000000e+00 0.0000000000000000e+00  2.6957872549516970e-01 0.0000000000000000e+00 0.0000000000000000e+00  2.7101085325093643e-01 0.0000000000000000e+00 0.0000000000000000e+00  2.7244238135575993e-01 0.0000000000000000e+00 0.0000000000000000e+00  2.7387330664217602e-01 0.0000000000000000e+00 0.0000000000000000e+00  2.7530362594405433e-01 0.0000000000000000e+00 0.0000000000000000e+00  2.7673333609660522e-01 0.0000000000000000e+00 0.0000000000000000e+00  2.7816243393638707e-01 0.0000000000000000e+00 0.0000000000000000e+00  2.7959091630131300e-01 0.0000000000000000e+00 0.0000000000000000e+00  2.8101878003065783e-01 0.0000000000000000e+00 0.0000000000000000e+00  2.8244602196506541e-01 0.0000000000000000e+00 0.0000000000000000e+00  2.8387263894655518e-01 0.0000000000000000e+00 0.0000000000000000e+00  3.2950424290965308e-01 0.0000000000000000e+00 0.0000000000000000e+00  2.8672398542578081e-01 0.0000000000000000e+00 0.0000000000000000e+00  2.8814870861449782e-01 0.0000000000000000e+00 0.0000000000000000e+00  2.8957279423227311e-01 0.0000000000000000e+00 0.0000000000000000e+00  2.9099623912811012e-01 0.0000000000000000e+00 0.0000000000000000e+00  2.9241904015242992e-01 0.0000000000000000e+00 0.0000000000000000e+00  2.9384119415707821e-01 0.0000000000000000e+00 0.0000000000000000e+00  2.9526269799533245e-01 0.0000000000000000e+00 0.0000000000000000e+00  2.9668354852190848e-01 0.0000000000000000e+00 0.0000000000000000e+00  2.9810374259296779e-01 0.0000000000000000e+00 0.0000000000000000e+00  2.9952327706612436e-01 0.0000000000000000e+00 0.0000000000000000e+00  3.0094214880045167e-01 0.0000000000000000e+00 0.0000000000000000e+00  3.0236035465648958e-01 0.0000000000000000e+00 0.0000000000000000e+00  3.0377789149625123e-01 0.0000000000000000e+00 0.0000000000000000e+00  3.0519475618323022e-01 0.0000000000000000e+00 0.0000000000000000e+00  3.0661094558240720e-01 0.0000000000000000e+00 0.0000000000000000e+00  3.0802645656025707e-01 0.0000000000000000e+00 0.0000000000000000e+00  3.0944128598475595e-01 0.0000000000000000e+00 0.0000000000000000e+00  3.1085543072538779e-01 0.0000000000000000e+00 0.0000000000000000e+00  3.1226888765315158e-01 0.0000000000000000e+00 0.0000000000000000e+00  3.1368165364056827e-01 0.0000000000000000e+00 0.0000000000000000e+00  3.1509372556168758e-01 0.0000000000000000e+00 0.0000000000000000e+00  3.1650510029209500e-01 0.0000000000000000e+00 0.0000000000000000e+00  3.1791577470891841e-01 0.0000000000000000e+00 0.0000000000000000e+00  3.1932574569083555e-01 0.0000000000000000e+00 0.0000000000000000e+00  3.2073501011808042e-01 0.0000000000000000e+00 0.0000000000000000e+00  3.2214356487245044e-01 0.0000000000000000e+00 0.0000000000000000e+00  3.2355140683731343e-01 0.0000000000000000e+00 0.0000000000000000e+00  3.2495853289761401e-01 0.0000000000000000e+00 0.0000000000000000e+00  3.2636493993988108e-01 0.0000000000000000e+00 0.0000000000000000e+00  3.2777062485223452e-01 0.0000000000000000e+00 0.0000000000000000e+00  3.2917558452439194e-01 0.0000000000000000e+00 0.0000000000000000e+00  3.3057981584767554e-01 0.0000000000000000e+00 0.0000000000000000e+00  3.3198331571501927e-01 0.0000000000000000e+00 0.0000000000000000e+00  3.3338608102097556e-01 0.0000000000000000e+00 0.0000000000000000e+00  3.3478810866172193e-01 0.0000000000000000e+00 0.0000000000000000e+00  3.3618939553506838e-01 0.0000000000000000e+00 0.0000000000000000e+00  3.3758993854046371e-01 0.0000000000000000e+00 0.0000000000000000e+00  3.3898973457900283e-01 0.0000000000000000e+00 0.0000000000000000e+00  3.4038878055343325e-01 0.0000000000000000e+00 0.0000000000000000e+00  3.4178707336816228e-01 0.0000000000000000e+00 0.0000000000000000e+00  3.4318460992926358e-01 0.0000000000000000e+00 0.0000000000000000e+00  3.4458138714448427e-01 0.0000000000000000e+00 0.0000000000000000e+00  3.4597740192325138e-01 0.0000000000000000e+00 0.0000000000000000e+00  3.4737265117667926e-01 0.0000000000000000e+00 0.0000000000000000e+00  3.4876713181757579e-01 0.0000000000000000e+00 0.0000000000000000e+00  3.5016084076044973e-01 0.0000000000000000e+00 0.0000000000000000e+00  3.5155377492151729e-01 0.0000000000000000e+00 0.0000000000000000e+00  3.5294593121870904e-01 0.0000000000000000e+00 0.0000000000000000e+00  3.5433730657167650e-01 0.0000000000000000e+00 0.0000000000000000e+00  3.5572789790179926e-01 0.0000000000000000e+00 0.0000000000000000e+00  3.5711770213219179e-01 0.0000000000000000e+00 0.0000000000000000e+00  3.5850671618770991e-01 0.0000000000000000e+00 0.0000000000000000e+00  3.5989493699495800e-01 0.0000000000000000e+00 0.0000000000000000e+00  3.6128236148229553e-01 0.0000000000000000e+00 0.0000000000000000e+00  3.6266898657984392e-01 0.0000000000000000e+00 0.0000000000000000e+00  3.6405480921949351e-01 0.0000000000000000e+00 0.0000000000000000e+00  3.6543982633491001e-01 0.0000000000000000e+00 0.0000000000000000e+00  3.6682403486154141e-01 0.0000000000000000e+00 0.0000000000000000e+00  3.6820743173662512e-01 0.0000000000000000e+00 0.0000000000000000e+00  3.6959001389919433e-01 0.0000000000000000e+00 0.0000000000000000e+00  3.7097177829008465e-01 0.0000000000000000e+00 0.0000000000000000e+00  3.7235272185194146e-01 0.0000000000000000e+00 0.0000000000000000e+00  3.7373284152922620e-01 0.0000000000000000e+00 0.0000000000000000e+00  3.7511213426822326e-01 0.0000000000000000e+00 0.0000000000000000e+00  4.1899496924393714e-01 0.0000000000000000e+00 0.0000000000000000e+00  3.7786822672564735e-01 0.0000000000000000e+00 0.0000000000000000e+00  3.7924502034581881e-01 0.0000000000000000e+00 0.0000000000000000e+00  3.8062097483120499e-01 0.0000000000000000e+00 0.0000000000000000e+00  3.8199608713730643e-01 0.0000000000000000e+00 0.0000000000000000e+00  3.8337035422148702e-01 0.0000000000000000e+00 0.0000000000000000e+00  3.8474377304298085e-01 0.0000000000000000e+00 0.0000000000000000e+00  3.8611634056289901e-01 0.0000000000000000e+00 0.0000000000000000e+00  3.8748805374423623e-01 0.0000000000000000e+00 0.0000000000000000e+00  3.8885890955187741e-01 0.0000000000000000e+00 0.0000000000000000e+00  3.9022890495260476e-01 0.0000000000000000e+00 0.0000000000000000e+00  3.9159803691510392e-01 0.0000000000000000e+00 0.0000000000000000e+00  3.9296630240997138e-01 0.0000000000000000e+00 0.0000000000000000e+00  3.9433369840972060e-01 0.0000000000000000e+00 0.0000000000000000e+00  3.9570022188878895e-01 0.0000000000000000e+00 0.0000000000000000e+00  3.9706586982354453e-01 0.0000000000000000e+00 0.0000000000000000e+00  3.9843063919229260e-01 0.0000000000000000e+00 0.0000000000000000e+00  3.9979452697528217e-01 0.0000000000000000e+00 0.0000000000000000e+00  4.0115753015471328e-01 0.0000000000000000e+00 0.0000000000000000e+00  4.0251964571474297e-01 0.0000000000000000e+00 0.0000000000000000e+00  4.0388087064149236e-01 0.0000000000000000e+00 0.0000000000000000e+00  4.0524120192305341e-01 0.0000000000000000e+00 0.0000000000000000e+00  4.0660063654949513e-01 0.0000000000000000e+00 0.0000000000000000e+00  4.0795917151287064e-01 0.0000000000000000e+00 0.0000000000000000e+00  4.0931680380722368e-01 0.0000000000000000e+00 0.0000000000000000e+00  4.10673530