<?xml version="1.0"?>
<VTKFile type="UnstructuredGrid"  version="0.1"  >
<UnstructuredGrid>
<Piece  NumberOfPoints="25" NumberOfCells="32">
<Points>
<DataArray  type="Float64"  NumberOfComponents="3"  format="ascii">0 0 0  0.25 0 0  0.5 0 0  0.75 0 0  1 0 0  0 0.375 0  0.25 0.375 0  0.5 0.375 0  0.75 0.375 0  1 0.375 0  0 0.75 0  0.25 0.75 0  0.5 0.75 0  0.75 0.75 0  1 0.75 0  0 1.125 0  0.25 1.125 0  0.5 1.125 0  0.75 1.125 0  1 1.125 0  0 1.5 0  0.25 1.5 0  0.5 1.5 0  0.75 1.5 0  1 1.5 0  </DataArray>
</Points>
<Cells>
<DataArray  type="UInt32"  Name="connectivity"  format="ascii">0 1 5  1 5 6  1 2 6  2 6 7  2 3 7  3 7 8  3 4 8  4 8 9  5 6 10  6 10 11  6 7 11  7 11 12  7 8 12  8 12 13  8 9 13  9 13 14  10 11 15  11 15 16  11 12 16  12 16 17  12 13 17  13 17 18  13 14 18  14 18 19  15 16 20  16 20 21  16 17 21  17 21 22  17 18 22  18 22 23  18 19 23  19 23 24  </DataArray>
<DataArray  type="UInt32"  Name="offsets"  format="ascii">3 6 9 12 15 18 21 24 27 30 33 36 39 42 45 48 51 54 57 60 63 66 69 72 75 78 81 84 87 90 93 96 </DataArray>
<DataArray  type="UInt8"  Name="types"  format="ascii">5 5 5 5 5 5 5 5 5 5 5 5 5 5 5 5 5 5 5 5 5 5 5 5 5 5 5 5 5 5 5 5 </DataArray>
</Cells>
<PointData  Vectors="f_73"> 
<DataArray  type="Float64"  Name="f_73"  NumberOfComponents="3" format="ascii">0.0000000000000000e+00 4.8296291314453410e-01 0.0000000000000000e+00  0.0000000000000000e+00 6.2940952255126037e-01 0.0000000000000000e+00  0.0000000000000000e+00 7.3296291314453410e-01 0.0000000000000000e+00  0.0000000000000000e+00 7.8656609248549292e-01 0.0000000000000000e+00  -1.1918896694841830e-01 7.8656609248549314e-01 0.0000000000000000e+00  0.0000000000000000e+00 7.3296291314453410e-01 0.0000000000000000e+00  0.0000000000000000e+00 6.2940952255126048e-01 0.0000000000000000e+00  0.0000000000000000e+00 4.8296291314453421e-01 0.0000000000000000e+00  0.0000000000000000e+00 3.0360317934095915e-01 0.0000000000000000e+00  -1.8088571617310950e-01 1.0355339059327395e-01 0.0000000000000000e+00  0.0000000000000000e+00 -1.0355339059327343e-01 0.0000000000000000e+00  0.0000000000000000e+00 -3.0360317934095865e-01 0.0000000000000000e+00  0.0000000000000000e+00 -4.8296291314453393e-01 0.0000000000000000e+00  0.0000000000000000e+00 -6.2940952255126015e-01 0.0000000000000000e+00  2.5555630283198738e-02 -7.3296291314453399e-01 0.0000000000000000e+00  0.0000000000000000e+00 -7.8656609248549292e-01 0.0000000000000000e+00  0.0000000000000000e+00 -7.8656609248549292e-01 0.0000000000000000e+00  0.0000000000000000e+00 -7.3296291314453410e-01 0.0000000000000000e+00  0.0000000000000000e+00 -6.2940952255126081e-01 0.0000000000000000e+00  1.9411428382689100e-01 -4.8296291314453432e-01 0.0000000000000000e+00  0.0000000000000000e+00 -8.6602540378443860e-01 0.0000000000000000e+00  0.0000000000000000e+00 -8.3651630373780783e-01 0.0000000000000000e+00  0.0000000000000000e+00 -7.5000000000000022e-01 0.0000000000000000e+00  0.0000000000000000e+00 -6.1237243569579491e-01 0.0000000000000000e+00  0.0000000000000000e+00 -4.8296291314453432e-01 0.0000000000000000e+00  </DataArray> 
</PointData> 
</Piece>
</UnstructuredGrid>
</VTKFile>