<?xml version="1.0"?>
<VTKFile type="UnstructuredGrid"  version="0.1"  >
<UnstructuredGrid>
<Piece  NumberOfPoints="1089" NumberOfCells="2048">
<Points>
<DataArray  type="Float64"  NumberOfComponents="3"  format="ascii">0 0 0  0.03125 0 0  0.0625 0 0  0.09375 0 0  0.125 0 0  0.15625 0 0  0.1875 0 0  0.21875 0 0  0.25 0 0  0.28125 0 0  0.3125 0 0  0.34375 0 0  0.375 0 0  0.40625 0 0  0.4375 0 0  0.46875 0 0  0.5 0 0  0.53125 0 0  0.5625 0 0  0.59375 0 0  0.625 0 0  0.65625 0 0  0.6875 0 0  0.71875 0 0  0.75 0 0  0.78125 0 0  0.8125 0 0  0.84375 0 0  0.875 0 0  0.90625 0 0  0.9375 0 0  0.96875 0 0  1 0 0  0 0.046875 0  0.03125 0.046875 0  0.0625 0.046875 0  0.09375 0.046875 0  0.125 0.046875 0  0.15625 0.046875 0  0.1875 0.046875 0  0.21875 0.046875 0  0.25 0.046875 0  0.28125 0.046875 0  0.3125 0.046875 0  0.34375 0.046875 0  0.375 0.046875 0  0.40625 0.046875 0  0.4375 0.046875 0  0.46875 0.046875 0  0.5 0.046875 0  0.53125 0.046875 0  0.5625 0.046875 0  0.59375 0.046875 0  0.625 0.046875 0  0.65625 0.046875 0  0.6875 0.046875 0  0.71875 0.046875 0  0.75 0.046875 0  0.78125 0.046875 0  0.8125 0.046875 0  0.84375 0.046875 0  0.875 0.046875 0  0.90625 0.046875 0  0.9375 0.046875 0  0.96875 0.046875 0  1 0.046875 0  0 0.09375 0  0.03125 0.09375 0  0.0625 0.09375 0  0.09375 0.09375 0  0.125 0.09375 0  0.15625 0.09375 0  0.1875 0.09375 0  0.21875 0.09375 0  0.25 0.09375 0  0.28125 0.09375 0  0.3125 0.09375 0  0.34375 0.09375 0  0.375 0.09375 0  0.40625 0.09375 0  0.4375 0.09375 0  0.46875 0.09375 0  0.5 0.09375 0  0.53125 0.09375 0  0.5625 0.09375 0  0.59375 0.09375 0  0.625 0.09375 0  0.65625 0.09375 0  0.6875 0.09375 0  0.71875 0.09375 0  0.75 0.09375 0  0.78125 0.09375 0  0.8125 0.09375 0  0.84375 0.09375 0  0.875 0.09375 0  0.90625 0.09375 0  0.9375 0.09375 0  0.96875 0.09375 0  1 0.09375 0  0 0.140625 0  0.03125 0.140625 0  0.0625 0.140625 0  0.09375 0.140625 0  0.125 0.140625 0  0.15625 0.140625 0  0.1875 0.140625 0  0.21875 0.140625 0  0.25 0.140625 0  0.28125 0.140625 0  0.3125 0.140625 0  0.34375 0.140625 0  0.375 0.140625 0  0.40625 0.140625 0  0.4375 0.140625 0  0.46875 0.140625 0  0.5 0.140625 0  0.53125 0.140625 0  0.5625 0.140625 0  0.59375 0.140625 0  0.625 0.140625 0  0.65625 0.140625 0  0.6875 0.140625 0  0.71875 0.140625 0  0.75 0.140625 0  0.78125 0.140625 0  0.8125 0.140625 0  0.84375 0.140625 0  0.875 0.140625 0  0.90625 0.140625 0  0.9375 0.140625 0  0.96875 0.140625 0  1 0.140625 0  0 0.1875 0  0.03125 0.1875 0  0.0625 0.1875 0  0.09375 0.1875 0  0.125 0.1875 0  0.15625 0.1875 0  0.1875 0.1875 0  0.21875 0.1875 0  0.25 0.1875 0  0.28125 0.1875 0  0.3125 0.1875 0  0.34375 0.1875 0  0.375 0.1875 0  0.40625 0.1875 0  0.4375 0.1875 0  0.46875 0.1875 0  0.5 0.1875 0  0.53125 0.1875 0  0.5625 0.1875 0  0.59375 0.1875 0  0.625 0.1875 0  0.65625 0.1875 0  0.6875 0.1875 0  0.71875 0.1875 0  0.75 0.1875 0  0.78125 0.1875 0  0.8125 0.1875 0  0.84375 0.1875 0  0.875 0.1875 0  0.90625 0.1875 0  0.9375 0.1875 0  0.96875 0.1875 0  1 0.1875 0  0 0.234375 0  0.03125 0.234375 0  0.0625 0.234375 0  0.09375 0.234375 0  0.125 0.234375 0  0.15625 0.234375 0  0.1875 0.234375 0  0.21875 0.234375 0  0.25 0.234375 0  0.28125 0.234375 0  0.3125 0.234375 0  0.34375 0.234375 0  0.375 0.234375 0  0.40625 0.234375 0  0.4375 0.234375 0  0.46875 0.234375 0  0.5 0.234375 0  0.53125 0.234375 0  0.5625 0.234375 0  0.59375 0.234375 0  0.625 0.234375 0  0.65625 0.234375 0  0.6875 0.234375 0  0.71875 0.234375 0  0.75 0.234375 0  0.78125 0.234375 0  0.8125 0.234375 0  0.84375 0.234375 0  0.875 0.234375 0  0.90625 0.234375 0  0.9375 0.234375 0  0.96875 0.234375 0  1 0.234375 0  0 0.28125 0  0.03125 0.28125 0  0.0625 0.28125 0  0.09375 0.28125 0  0.125 0.28125 0  0.15625 0.28125 0  0.1875 0.28125 0  0.21875 0.28125 0  0.25 0.28125 0  0.28125 0.28125 0  0.3125 0.28125 0  0.34375 0.28125 0  0.375 0.28125 0  0.40625 0.28125 0  0.4375 0.28125 0  0.46875 0.28125 0  0.5 0.28125 0  0.53125 0.28125 0  0.5625 0.28125 0  0.59375 0.28125 0  0.625 0.28125 0  0.65625 0.28125 0  0.6875 0.28125 0  0.71875 0.28125 0  0.75 0.28125 0  0.78125 0.28125 0  0.8125 0.28125 0  0.84375 0.28125 0  0.875 0.28125 0  0.90625 0.28125 0  0.9375 0.28125 0  0.96875 0.28125 0  1 0.28125 0  0 0.328125 0  0.03125 0.328125 0  0.0625 0.328125 0  0.09375 0.328125 0  0.125 0.328125 0  0.15625 0.328125 0  0.1875 0.328125 0  0.21875 0.328125 0  0.25 0.328125 0  0.28125 0.328125 0  0.3125 0.328125 0  0.34375 0.328125 0  0.375 0.328125 0  0.40625 0.328125 0  0.4375 0.328125 0  0.46875 0.328125 0  0.5 0.328125 0  0.53125 0.328125 0  0.5625 0.328125 0  0.59375 0.328125 0  0.625 0.328125 0  0.65625 0.328125 0  0.6875 0.328125 0  0.71875 0.328125 0  0.75 0.328125 0  0.78125 0.328125 0  0.8125 0.328125 0  0.84375 0.328125 0  0.875 0.328125 0  0.90625 0.328125 0  0.9375 0.328125 0  0.96875 0.328125 0  1 0.328125 0  0 0.375 0  0.03125 0.375 0  0.0625 0.375 0  0.09375 0.375 0  0.125 0.375 0  0.15625 0.375 0  0.1875 0.375 0  0.21875 0.375 0  0.25 0.375 0  0.28125 0.375 0  0.3125 0.375 0  0.34375 0.375 0  0.375 0.375 0  0.40625 0.375 0  0.4375 0.375 0  0.46875 0.375 0  0.5 0.375 0  0.53125 0.375 0  0.5625 0.375 0  0.59375 0.375 0  0.625 0.375 0  0.65625 0.375 0  0.6875 0.375 0  0.71875 0.375 0  0.75 0.375 0  0.78125 0.375 0  0.8125 0.375 0  0.84375 0.375 0  0.875 0.375 0  0.90625 0.375 0  0.9375 0.375 0  0.96875 0.375 0  1 0.375 0  0 0.421875 0  0.03125 0.421875 0  0.0625 0.421875 0  0.09375 0.421875 0  0.125 0.421875 0  0.15625 0.421875 0  0.1875 0.421875 0  0.21875 0.421875 0  0.25 0.421875 0  0.28125 0.421875 0  0.3125 0.421875 0  0.34375 0.421875 0  0.375 0.421875 0  0.40625 0.421875 0  0.4375 0.421875 0  0.46875 0.421875 0  0.5 0.421875 0  0.53125 0.421875 0  0.5625 0.421875 0  0.59375 0.421875 0  0.625 0.421875 0  0.65625 0.421875 0  0.6875 0.421875 0  0.71875 0.421875 0  0.75 0.421875 0  0.78125 0.421875 0  0.8125 0.421875 0  0.84375 0.421875 0  0.875 0.421875 0  0.90625 0.421875 0  0.9375 0.421875 0  0.96875 0.421875 0  1 0.421875 0  0 0.46875 0  0.03125 0.46875 0  0.0625 0.46875 0  0.09375 0.46875 0  0.125 0.46875 0  0.15625 0.46875 0  0.1875 0.46875 0  0.21875 0.46875 0  0.25 0.46875 0  0.28125 0.46875 0  0.3125 0.46875 0  0.34375 0.46875 0  0.375 0.46875 0  0.40625 0.46875 0  0.4375 0.46875 0  0.46875 0.46875 0  0.5 0.46875 0  0.53125 0.46875 0  0.5625 0.46875 0  0.59375 0.46875 0  0.625 0.46875 0  0.65625 0.46875 0  0.6875 0.46875 0  0.71875 0.46875 0  0.75 0.46875 0  0.78125 0.46875 0  0.8125 0.46875 0  0.84375 0.46875 0  0.875 0.46875 0  0.90625 0.46875 0  0.9375 0.46875 0  0.96875 0.46875 0  1 0.46875 0  0 0.515625 0  0.03125 0.515625 0  0.0625 0.515625 0  0.09375 0.515625 0  0.125 0.515625 0  0.15625 0.515625 0  0.1875 0.515625 0  0.21875 0.515625 0  0.25 0.515625 0  0.28125 0.515625 0  0.3125 0.515625 0  0.34375 0.515625 0  0.375 0.515625 0  0.40625 0.515625 0  0.4375 0.515625 0  0.46875 0.515625 0  0.5 0.515625 0  0.53125 0.515625 0  0.5625 0.515625 0  0.59375 0.515625 0  0.625 0.515625 0  0.65625 0.515625 0  0.6875 0.515625 0  0.71875 0.515625 0  0.75 0.515625 0  0.78125 0.515625 0  0.8125 0.515625 0  0.84375 0.515625 0  0.875 0.515625 0  0.90625 0.515625 0  0.9375 0.515625 0  0.96875 0.515625 0  1 0.515625 0  0 0.5625 0  0.03125 0.5625 0  0.0625 0.5625 0  0.09375 0.5625 0  0.125 0.5625 0  0.15625 0.5625 0  0.1875 0.5625 0  0.21875 0.5625 0  0.25 0.5625 0  0.28125 0.5625 0  0.3125 0.5625 0  0.34375 0.5625 0  0.375 0.5625 0  0.40625 0.5625 0  0.4375 0.5625 0  0.46875 0.5625 0  0.5 0.5625 0  0.53125 0.5625 0  0.5625 0.5625 0  0.59375 0.5625 0  0.625 0.5625 0  0.65625 0.5625 0  0.6875 0.5625 0  0.71875 0.5625 0  0.75 0.5625 0  0.78125 0.5625 0  0.8125 0.5625 0  0.84375 0.5625 0  0.875 0.5625 0  0.90625 0.5625 0  0.9375 0.5625 0  0.96875 0.5625 0  1 0.5625 0  0 0.609375 0  0.03125 0.609375 0  0.0625 0.609375 0  0.09375 0.609375 0  0.125 0.609375 0  0.15625 0.609375 0  0.1875 0.609375 0  0.21875 0.609375 0  0.25 0.609375 0  0.28125 0.609375 0  0.3125 0.609375 0  0.34375 0.609375 0  0.375 0.609375 0  0.40625 0.609375 0  0.4375 0.609375 0  0.46875 0.609375 0  0.5 0.609375 0  0.53125 0.609375 0  0.5625 0.609375 0  0.59375 0.609375 0  0.625 0.609375 0  0.65625 0.609375 0  0.6875 0.609375 0  0.71875 0.609375 0  0.75 0.609375 0  0.78125 0.609375 0  0.8125 0.609375 0  0.84375 0.609375 0  0.875 0.609375 0  0.90625 0.609375 0  0.9375 0.609375 0  0.96875 0.609375 0  1 0.609375 0  0 0.65625 0  0.03125 0.65625 0  0.0625 0.65625 0  0.09375 0.65625 0  0.125 0.65625 0  0.15625 0.65625 0  0.1875 0.65625 0  0.21875 0.65625 0  0.25 0.65625 0  0.28125 0.65625 0  0.3125 0.65625 0  0.34375 0.65625 0  0.375 0.65625 0  0.40625 0.65625 0  0.4375 0.65625 0  0.46875 0.65625 0  0.5 0.65625 0  0.53125 0.65625 0  0.5625 0.65625 0  0.59375 0.65625 0  0.625 0.65625 0  0.65625 0.65625 0  0.6875 0.65625 0  0.71875 0.65625 0  0.75 0.65625 0  0.78125 0.65625 0  0.8125 0.65625 0  0.84375 0.65625 0  0.875 0.65625 0  0.90625 0.65625 0  0.9375 0.65625 0  0.96875 0.65625 0  1 0.65625 0  0 0.703125 0  0.03125 0.703125 0  0.0625 0.703125 0  0.09375 0.703125 0  0.125 0.703125 0  0.15625 0.703125 0  0.1875 0.703125 0  0.21875 0.703125 0  0.25 0.703125 0  0.28125 0.703125 0  0.3125 0.703125 0  0.34375 0.703125 0  0.375 0.703125 0  0.40625 0.703125 0  0.4375 0.703125 0  0.46875 0.703125 0  0.5 0.703125 0  0.53125 0.703125 0  0.5625 0.703125 0  0.59375 0.703125 0  0.625 0.703125 0  0.65625 0.703125 0  0.6875 0.703125 0  0.71875 0.703125 0  0.75 0.703125 0  0.78125 0.703125 0  0.8125 0.703125 0  0.84375 0.703125 0  0.875 0.703125 0  0.90625 0.703125 0  0.9375 0.703125 0  0.96875 0.703125 0  1 0.703125 0  0 0.75 0  0.03125 0.75 0  0.0625 0.75 0  0.09375 0.75 0  0.125 0.75 0  0.15625 0.75 0  0.1875 0.75 0  0.21875 0.75 0  0.25 0.75 0  0.28125 0.75 0  0.3125 0.75 0  0.34375 0.75 0  0.375 0.75 0  0.40625 0.75 0  0.4375 0.75 0  0.46875 0.75 0  0.5 0.75 0  0.53125 0.75 0  0.5625 0.75 0  0.59375 0.75 0  0.625 0.75 0  0.65625 0.75 0  0.6875 0.75 0  0.71875 0.75 0  0.75 0.75 0  0.78125 0.75 0  0.8125 0.75 0  0.84375 0.75 0  0.8
[...]
<PointData  Vectors="f_247"> 
<DataArray  type="Float64"  Name="f_247"  NumberOfComponents="3" format="ascii">0.0000000000000000e+00 9.4711539290914026e-02 0.0000000000000000e+00  0.0000000000000000e+00 1.0043263820599993e-01 0.0000000000000000e+00  0.0000000000000000e+00 1.0615038765480528e-01 0.0000000000000000e+00  0.0000000000000000e+00 1.1186459694823403e-01 0.0000000000000000e+00  0.0000000000000000e+00 1.1757507551525587e-01 0.0000000000000000e+00  0.0000000000000000e+00 1.2328163290926153e-01 0.0000000000000000e+00  0.0000000000000000e+00 1.2898407881441429e-01 0.0000000000000000e+00  0.0000000000000000e+00 1.3468222305199720e-01 0.0000000000000000e+00  0.0000000000000000e+00 1.4037587558675552e-01 0.0000000000000000e+00  0.0000000000000000e+00 1.4606484653323448e-01 0.0000000000000000e+00  0.0000000000000000e+00 1.5174894616211204e-01 0.0000000000000000e+00  0.0000000000000000e+00 1.5742798490652649e-01 0.0000000000000000e+00  0.0000000000000000e+00 1.6310177336839843e-01 0.0000000000000000e+00  0.0000000000000000e+00 1.6877012232474745e-01 0.0000000000000000e+00  0.0000000000000000e+00 1.7443284273400256e-01 0.0000000000000000e+00  0.0000000000000000e+00 1.8008974574230710e-01 0.0000000000000000e+00  0.0000000000000000e+00 1.8574064268981685e-01 0.0000000000000000e+00  0.0000000000000000e+00 1.9138534511699193e-01 0.0000000000000000e+00  0.0000000000000000e+00 1.9702366477088207e-01 0.0000000000000000e+00  0.0000000000000000e+00 2.0265541361140499e-01 0.0000000000000000e+00  0.0000000000000000e+00 2.0828040381761737e-01 0.0000000000000000e+00  0.0000000000000000e+00 2.1389844779397896e-01 0.0000000000000000e+00  0.0000000000000000e+00 2.1950935817660883e-01 0.0000000000000000e+00  0.0000000000000000e+00 2.2511294783953428e-01 0.0000000000000000e+00  0.0000000000000000e+00 2.3070902990093101e-01 0.0000000000000000e+00  0.0000000000000000e+00 2.3629741772935642e-01 0.0000000000000000e+00  0.0000000000000000e+00 2.4187792494997321e-01 0.0000000000000000e+00  0.0000000000000000e+00 2.4745036545076549e-01 0.0000000000000000e+00  0.0000000000000000e+00 2.5301455338874540e-01 0.0000000000000000e+00  0.0000000000000000e+00 2.5857030319615126e-01 0.0000000000000000e+00  0.0000000000000000e+00 2.6411742958663620e-01 0.0000000000000000e+00  0.0000000000000000e+00 2.6965574756144733e-01 0.0000000000000000e+00  4.0342206206018805e-03 2.7518507241559620e-01 0.0000000000000000e+00  0.0000000000000000e+00 2.8070521974401774e-01 0.0000000000000000e+00  0.0000000000000000e+00 2.8621600544772130e-01 0.0000000000000000e+00  0.0000000000000000e+00 2.9171724573992974e-01 0.0000000000000000e+00  0.0000000000000000e+00 2.9720875715220890e-01 0.0000000000000000e+00  0.0000000000000000e+00 3.0269035654058662e-01 0.0000000000000000e+00  0.0000000000000000e+00 3.0816186109166038e-01 0.0000000000000000e+00  0.0000000000000000e+00 3.1362308832869418e-01 0.0000000000000000e+00  0.0000000000000000e+00 3.1907385611770450e-01 0.0000000000000000e+00  0.0000000000000000e+00 3.2451398267353421e-01 0.0000000000000000e+00  0.0000000000000000e+00 3.2994328656591537e-01 0.0000000000000000e+00  0.0000000000000000e+00 3.3536158672551997e-01 0.0000000000000000e+00  0.0000000000000000e+00 3.4076870244999846e-01 0.0000000000000000e+00  0.0000000000000000e+00 3.4616445341000662e-01 0.0000000000000000e+00  0.0000000000000000e+00 3.5154865965521936e-01 0.0000000000000000e+00  0.0000000000000000e+00 3.5692114162033201e-01 0.0000000000000000e+00  0.0000000000000000e+00 3.6228172013104931e-01 0.0000000000000000e+00  0.0000000000000000e+00 3.6763021641006044e-01 0.0000000000000000e+00  0.0000000000000000e+00 3.7296645208300172e-01 0.0000000000000000e+00  0.0000000000000000e+00 3.7829024918440518e-01 0.0000000000000000e+00  0.0000000000000000e+00 3.8360143016363396e-01 0.0000000000000000e+00  0.0000000000000000e+00 3.8889981789080375e-01 0.0000000000000000e+00  0.0000000000000000e+00 3.9418523566268970e-01 0.0000000000000000e+00  0.0000000000000000e+00 3.9945750720862006e-01 0.0000000000000000e+00  0.0000000000000000e+00 4.0471645669635470e-01 0.0000000000000000e+00  0.0000000000000000e+00 4.0996190873794902e-01 0.0000000000000000e+00  0.0000000000000000e+00 4.1519368839560339e-01 0.0000000000000000e+00  0.0000000000000000e+00 4.2041162118749736e-01 0.0000000000000000e+00  0.0000000000000000e+00 4.2561553309360844e-01 0.0000000000000000e+00  0.0000000000000000e+00 4.3080525056151631e-01 0.0000000000000000e+00  0.0000000000000000e+00 4.3598060051219034e-01 0.0000000000000000e+00  0.0000000000000000e+00 4.4114141034576193e-01 0.0000000000000000e+00  0.0000000000000000e+00 4.4628750794728100e-01 0.0000000000000000e+00  3.6625999971604539e-03 4.5141872169245589e-01 0.0000000000000000e+00  0.0000000000000000e+00 4.5653488045337698e-01 0.0000000000000000e+00  0.0000000000000000e+00 4.6163581360422434e-01 0.0000000000000000e+00  0.0000000000000000e+00 4.6672135102695772e-01 0.0000000000000000e+00  0.0000000000000000e+00 4.7179132311699012e-01 0.0000000000000000e+00  0.0000000000000000e+00 4.7684556078884444e-01 0.0000000000000000e+00  0.0000000000000000e+00 4.8188389548179211e-01 0.0000000000000000e+00  0.0000000000000000e+00 4.8690615916547497e-01 0.0000000000000000e+00  0.0000000000000000e+00 4.9191218434550932e-01 0.0000000000000000e+00  0.0000000000000000e+00 4.9690180406907142e-01 0.0000000000000000e+00  0.0000000000000000e+00 5.0187485193046544e-01 0.0000000000000000e+00  0.0000000000000000e+00 5.0683116207667400e-01 0.0000000000000000e+00  0.0000000000000000e+00 5.1177056921288822e-01 0.0000000000000000e+00  0.0000000000000000e+00 5.1669290860802142e-01 0.0000000000000000e+00  0.0000000000000000e+00 5.2159801610020218e-01 0.0000000000000000e+00  0.0000000000000000e+00 5.2648572810224981e-01 0.0000000000000000e+00  0.0000000000000000e+00 5.3135588160712954e-01 0.0000000000000000e+00  0.0000000000000000e+00 5.3620831419338910e-01 0.0000000000000000e+00  0.0000000000000000e+00 5.4104286403057567e-01 0.0000000000000000e+00  0.0000000000000000e+00 5.4585936988463279e-01 0.0000000000000000e+00  0.0000000000000000e+00 5.5065767112327757e-01 0.0000000000000000e+00  0.0000000000000000e+00 5.5543760772135786e-01 0.0000000000000000e+00  0.0000000000000000e+00 5.6019902026618940e-01 0.0000000000000000e+00  0.0000000000000000e+00 5.6494174996287183e-01 0.0000000000000000e+00  0.0000000000000000e+00 5.6966563863958486e-01 0.0000000000000000e+00  0.0000000000000000e+00 5.7437052875286343e-01 0.0000000000000000e+00  0.0000000000000000e+00 5.7905626339285154e-01 0.0000000000000000e+00  0.0000000000000000e+00 5.8372268628853574e-01 0.0000000000000000e+00  0.0000000000000000e+00 5.8836964181295603e-01 0.0000000000000000e+00  0.0000000000000000e+00 5.9299697498839721e-01 0.0000000000000000e+00  0.0000000000000000e+00 5.9760453149155601e-01 0.0000000000000000e+00  0.0000000000000000e+00 6.0219215765868939e-01 0.0000000000000000e+00  0.0000000000000000e+00 6.0675970049073813e-01 0.0000000000000000e+00  3.1583607543770320e-03 6.1130700765842971e-01 0.0000000000000000e+00  0.0000000000000000e+00 6.1583392750735888e-01 0.0000000000000000e+00  0.0000000000000000e+00 6.2034030906304505e-01 0.0000000000000000e+00  0.0000000000000000e+00 6.2482600203596750e-01 0.0000000000000000e+00  0.0000000000000000e+00 6.2929085682657726e-01 0.0000000000000000e+00  0.0000000000000000e+00 6.3373472453028679e-01 0.0000000000000000e+00  0.0000000000000000e+00 6.3815745694243597e-01 0.0000000000000000e+00  0.0000000000000000e+00 6.4255890656323422e-01 0.0000000000000000e+00  0.0000000000000000e+00 6.4693892660268049e-01 0.0000000000000000e+00  0.0000000000000000e+00 6.5129737098545781e-01 0.0000000000000000e+00  0.0000000000000000e+00 6.5563409435580589e-01 0.0000000000000000e+00  0.0000000000000000e+00 6.5994895208236837e-01 0.0000000000000000e+00  0.0000000000000000e+00 6.6424180026301627e-01 0.0000000000000000e+00  0.0000000000000000e+00 6.6851249572964699e-01 0.0000000000000000e+00  0.0000000000000000e+00 6.7276089605295941e-01 0.0000000000000000e+00  0.0000000000000000e+00 6.7698685954720439e-01 0.0000000000000000e+00  0.0000000000000000e+00 6.8119024527490879e-01 0.0000000000000000e+00  0.0000000000000000e+00 6.8537091305157649e-01 0.0000000000000000e+00  0.0000000000000000e+00 6.8952872345036398e-01 0.0000000000000000e+00  0.0000000000000000e+00 6.9366353780672974e-01 0.0000000000000000e+00  0.0000000000000000e+00 6.9777521822305888e-01 0.0000000000000000e+00  0.0000000000000000e+00 7.0186362757326215e-01 0.0000000000000000e+00  0.0000000000000000e+00 7.0592862950734914e-01 0.0000000000000000e+00  0.0000000000000000e+00 7.0997008845597542e-01 0.0000000000000000e+00  0.0000000000000000e+00 7.1398786963496419e-01 0.0000000000000000e+00  0.0000000000000000e+00 7.1798183904980117e-01 0.0000000000000000e+00  0.0000000000000000e+00 7.2195186350010299e-01 0.0000000000000000e+00  0.0000000000000000e+00 7.2589781058406055e-01 0.0000000000000000e+00  0.0000000000000000e+00 7.2981954870285348e-01 0.0000000000000000e+00  0.0000000000000000e+00 7.3371694706503954e-01 0.0000000000000000e+00  0.0000000000000000e+00 7.3758987569091661e-01 0.0000000000000000e+00  0.0000000000000000e+00 7.4143820541685757e-01 0.0000000000000000e+00  0.0000000000000000e+00 7.4526180789961771e-01 0.0000000000000000e+00  2.5397608271195971e-03 7.4906055562061546e-01 0.0000000000000000e+00  0.0000000000000000e+00 7.5283432189018440e-01 0.0000000000000000e+00  0.0000000000000000e+00 7.5658298085179965e-01 0.0000000000000000e+00  0.0000000000000000e+00 7.6030640748627376e-01 0.0000000000000000e+00  0.0000000000000000e+00 7.6400447761592738e-01 0.0000000000000000e+00  0.0000000000000000e+00 7.6767706790872980e-01 0.0000000000000000e+00  0.0000000000000000e+00 7.7132405588241260e-01 0.0000000000000000e+00  0.0000000000000000e+00 7.7494531990855453e-01 0.0000000000000000e+00  0.0000000000000000e+00 7.7854073921663769e-01 0.0000000000000000e+00  0.0000000000000000e+00 7.8211019389807479e-01 0.0000000000000000e+00  0.0000000000000000e+00 7.8565356491020877e-01 0.0000000000000000e+00  0.0000000000000000e+00 7.8917073408028293e-01 0.0000000000000000e+00  0.0000000000000000e+00 7.9266158410938226e-01 0.0000000000000000e+00  0.0000000000000000e+00 7.9612599857634392e-01 0.0000000000000000e+00  0.0000000000000000e+00 7.9956386194164220e-01 0.0000000000000000e+00  0.0000000000000000e+00 8.0297505955123960e-01 0.0000000000000000e+00  0.0000000000000000e+00 8.0635947764041238e-01 0.0000000000000000e+00  0.0000000000000000e+00 8.0971700333754359e-01 0.0000000000000000e+00  0.0000000000000000e+00 8.1304752466788754e-01 0.0000000000000000e+00  0.0000000000000000e+00 8.1635093055730445e-01 0.0000000000000000e+00  0.0000000000000000e+00 8.1962711083596496e-01 0.0000000000000000e+00  0.0000000000000000e+00 8.2287595624202337e-01 0.0000000000000000e+00  0.0000000000000000e+00 8.2609735842526322e-01 0.0000000000000000e+00  0.0000000000000000e+00 8.2929120995070926e-01 0.0000000000000000e+00  0.0000000000000000e+00 8.3245740430221105e-01 0.0000000000000000e+00  0.0000000000000000e+00 8.3559583588599518e-01 0.0000000000000000e+00  0.0000000000000000e+00 8.3870640003418750e-01 0.0000000000000000e+00  0.0000000000000000e+00 8.4178899300830312e-01 0.0000000000000000e+00  0.0000000000000000e+00 8.4484351200270624e-01 0.0000000000000000e+00  0.0000000000000000e+00 8.4786985514803881e-01 0.0000000000000000e+00  0.0000000000000000e+00 8.5086792151461776e-01 0.0000000000000000e+00  0.0000000000000000e+00 8.5383761111580192e-01 0.0000000000000000e+00  0.0000000000000000e+00 8.5677882491132529e-01 0.0000000000000000e+00  1.8291990217935705e-03 8.5969146481060066e-01 0.0000000000000000e+00  0.0000000000000000e+00 8.6257543367599165e-01 0.0000000000000000e+00  0.0000000000000000e+00 8.6543063532605125e-01 0.0000000000000000e+00  0.0000000000000000e+00 8.6825697453872963e-01 0.0000000000000000e+00  0.0000000000000000e+00 8.7105435705455048e-01 0.0000000000000000e+00  0.0000000000000000e+00 8.7382268957975429e-01 0.0000000000000000e+00  0.0000000000000000e+00 8.7656187978940925e-01 0.0000000000000000e+00  0.0000000000000000e+00 8.7927183633049122e-01 0.0000000000000000e+00  0.0000000000000000e+00 8.8195246882492984e-01 0.0000000000000000e+00  0.0000000000000000e+00 8.8460368787262234e-01 0.0000000000000000e+00  0.0000000000000000e+00 8.8722540505441572e-01 0.0000000000000000e+00  0.0000000000000000e+00 8.8981753293505561e-01 0.0000000000000000e+00  0.0000000000000000e+00 8.9237998506610128e-01 0.0000000000000000e+00  0.0000000000000000e+00 8.9491267598881008e-01 0.0000000000000000e+00  0.0000000000000000e+00 8.9741552123698654e-01 0.0000000000000000e+00  0.0000000000000000e+00 8.9988843733979973e-01 0.0000000000000000e+00  0.0000000000000000e+00 9.0233134182456676e-01 0.0000000000000000e+00  0.0000000000000000e+00 9.0474415321950419e-01 0.0000000000000000e+00  0.0000000000000000e+00 9.0712679105644356e-01 0.0000000000000000e+00  0.0000000000000000e+00 9.0947917587351645e-01 0.0000000000000000e+00  0.0000000000000000e+00 9.1180122921780404e-01 0.0000000000000000e+00  0.0000000000000000e+00 9.1409287364795322e-01 0.0000000000000000e+00  0.0000000000000000e+00 9.1635403273675975e-01 0.0000000000000000e+00  0.0000000000000000e+00 9.1858463107371746e-01 0.0000000000000000e+00  0.0000000000000000e+00 9.2078459426753212e-01 0.0000000000000000e+00  0.0000000000000000e+00 9.2295384894860322e-01 0.0000000000000000e+00  0.0000000000000000e+00 9.2509232277147080e-01 0.0000000000000000e+00  0.0000000000000000e+00 9.2719994441722808e-01 0.0000000000000000e+00  0.0000000000000000e+00 9.2927664359590034e-01 0.0000000000000000e+00  0.0000000000000000e+00 9.3132235104878802e-01 0.0000000000000000e+00  0.0000000000000000e+00 9.3333699855077756e-01 0.0000000000000000e+00  0.0000000000000000e+00 9.3532051891261703e-01 0.0000000000000000e+00  0.0000000000000000e+00 9.3727284598315586e-01 0.0000000000000000e+00  1.0524039807995322e-03 9.3919391465155133e-01 0.0000000000000000e+00  0.0000000000000000e+00 9.4108366084944017e-01 0.0000000000000000e+00  0.0000000000000000e+00 9.4294202155307594e-01 0.0000000000000000e+00  0.0000000000000000e+00 9.4476893478542956e-01 0.0000000000000000e+00  0.0000000000000000e+00 9.4656433961825714e-01 0.0000000000000000e+00  0.0000000000000000e+00 9.4832817617413201e-01 0.0000000000000000e+00  0.0000000000000000e+00 9.5006038562844108e-01 0.0000000000000000e+00  0.0000000000000000e+00 9.5176091021134734e-01 0.0000000000000000e+00  0.0000000000000000e+00 9.5342969320971582e-01 0.0000000000000000e+00  0.0000000000000000e+00 9.5506667896900566e-01 0.0000000000000000e+00  0.0000000000000000e+00 9.5667181289512548e-01 0.0000000000000000e+00  0.0000000000000000e+00 9.5824504145625511e-01 0.0000000000000000e+00  0.0000000000000000e+00 9.5978631218462973e-01 0.0000000000000000e+00  0.0000000000000000e+00 9.6129557367829044e-01 0.0000000000000000e+00  0.0000000000000000e+00 9.6277277560279861e-01 0.0000000000000000e+00  0.0000000000000000e+00 9.6421786869291415e-01 0.0000000000000000e+00  0.0000000000000000e+00 9.6563080475423835e-01 0.0000000000000000e+00  0.0000000000000000e+00 9.6701153666482231e-01 0.0000000000000000e+00  0.0000000000000000e+00 9.6836001837673713e-01 0.0000000000000000e+00  0.0000000000000000e+00 9.6967620491760975e-01 0.0000000000000000e+00  0.0000000000000000e+00 9.7096005239212402e-01 0.0000000000000000e+00  0.0000000000000000e+00 9.7221151798348360e-01 0.0000000000000000e+00  0.0000000000000000e+00 9.7343055995483996e-01 0.0000000000000000e+00  0.0000000000000000e+00 9.7461713765068458e-01 0.0000000000000000e+00  0.0000000000000000e+00 9.7577121149820467e-01 0.0000000000000000e+00  0.0000000000000000e+00 9.7689274300860318e-01 0.0000000000000000e+00  0.0000000000000000e+00 9.7798169477838226e-01 0.0000000000000000e+00  0.0000000000000000e+00 9.7903803049059024e-01 0.0000000000000000e+00  0.0000000000000000e+00 9.8006171491603411e-01 0.0000000000000000e+00  0.0000000000000000e+00 9.8105271391445259e-01 0.0000000000000000e+00  0.0000000000000000e+00 9.8201099443565631e-01 0.0000000000000000e+00  0.0000000000000000e+00 9.8293652452062930e-01 0.0000000000000000e+00  0.0000000000000000e+00 9.8382927330259462e-01 0.0000000000000000e+00  2.3750257737575886e-04 9.8468921100804474e-01 0.0000000000000000e+00  0.0000000000000000e+00 9.8551630895773346e-01 0.0000000000000000e+00  0.0000000000000000e+00 9.8631053956763293e-01 0.0000000000000000e+00  0.0000000000000000e+00 9.8707187634985338e-01 0.0000000000000000e+00  0.0000000000000000e+00 9.8780029391352642e-01 0.0000000000000000e+00  0.0000000000000000e+00 9.8849576796565242e-01 0.0000000000000000e+00  0.0000000000000000e+00 9.8915827531190992e-01 0.0000000000000000e+00  0.0000000000000000e+00 9.8978779385742954e-01 0.0000000000000000e+00  0.0000000000000000e+00 9.9038430260753096e-01 0.0000000000000000e+00  0.0000000000000000e+00 9.9094778166842312e-01 0.0000000000000000e+00  0.0000000000000000e+00 9.9147821224786681e-01 0.0000000000000000e+00  0.0000000000000000e+00 9.9197557665580283e-01 0.0000000000000000e+00  0.0000000000000000e+00 9.9243985830494097e-01 0.0000000000000000e+00  0.0000000000000000e+00 9.9287104171131335e-01 0.0000000000000000e+00  0.0000000000000000e+00 9.9326911249479144e-01 0.0000000000000000e+00  0.0000000000000000e+00 9.9363405737956456e-01 0.0000000000000000e+00  0.0000000000000000e+00 9.9396586419458333e-01 0.0000000000000000e+00  0.0000000000000000e+00 9.9426452187396586e-01 0.0000000000000000e+00  0.0000000000000000e+00 9.9453002045736627e-01 0.0000000000000000e+00  0.0000000000000000e+00 9.9476235109030675e-01 0.0000000000000000e+00  0.0000000000000000e+00 9.9496150602447297e-01 0.0000000000000000e+00  0.0000000000000000e+00 9.9512747861797290e-01 0.0000000000000000e+00  0.0000000000000000e+00 9.9526026333555873e-01 0.0000000000000000e+00  0.0000000000000000e+00 9.9535985574880947e-01 0.0000000000000000e+00  0.0000000000000000e+00 9.9542625253628114e-01 0.0000000000000000e+00  0.0000000000000000e+00 9.9545945148361570e-01 0.0000000000000000e+00  0.0000000000000000e+00 9.9545945148361570e-01 0.0000000000000000e+00  0.0000000000000000e+00 9.9542625253628114e-01 0.0000000000000000e+00  0.0000000000000000e+00 9.9535985574880947e-01 0.0000000000000000e+00  0.0000000000000000e+00 9.9526026333555873e-01 0.0000000000000000e+00  0.0000000000000000e+00 9.9512747861797302e-01 0.0000000000000000e+00  0.0000000000000000e+00 9.9496150602447297e-01 0.0000000000000000e+00  0.0000000000000000e+00 9.9476235109030653e-01 0.0000000000000000e+00  -5.8599852678620223e-04 9.9453002045736627e-01 0.0000000000000000e+00  0.0000000000000000e+00 9.9426452187396586e-01 0.0000000000000000e+00  0.0000000000000000e+00 9.9396586419458333e-01 0.0000000000000000e+00  0.0000000000000000e+00 9.9363405737956456e-01 0.0000000000000000e+00  0.0000000000000000e+00 9.9326911249479144e-01 0.0000000000000000e+00  0.0000000000000000e+00 9.9287104171131335e-01 0.0000000000000000e+00  0.0000000000000000e+00 9.9243985830494097e-01 0.0000000000000000e+00  0.0000000000000000e+00 9.9197557665580283e-01 0.0000000000000000e+00  0.0000000000000000e+00 9.9147821224786681e-01 0.0000000000000000e+00  0.0000000000000000e+00 9.9094778166842312e-01 0.0000000000000000e+00  0.0000000000000000e+00 9.9038430260753096e-01 0.0000000000000000e+00  0.0000000000000000e+00 9.8978779385742954e-01 0.0000000000000000e+00  0.0000000000000000e+00 9.8915827531190992e-01 0.0000000000000000e+00  0.0000000000000000e+00 9.8849576796565242e-01 0.0000000000000000e+00  0.0000000000000000e+00 9.8780029391352642e-01 0.0000000000000000e+00  0.0000000000000000e+00 9.8707187634985338e-01 0.0000000000000000e+00  0.0000000000000000e+00 9.8631053956763293e-01 0.0000000000000000e+00  0.0000000000000000e+00 9.8551630895773346e-01 0.0000000000000000e+00  0.0000000000000000e+00 9.8468921100804474e-01 0.0000000000000000e+00  0.0000000000000000e+00 9.8382927330259462e-01 0.0000000000000000e+00  0.0000000000000000e+00 9.8293652452062930e-01 0.0000000000000000e+00  0.0000000