<?xml version="1.0"?>
<VTKFile type="UnstructuredGrid"  version="0.1"  >
<UnstructuredGrid>
<Piece  NumberOfPoints="1089" NumberOfCells="2048">
<Points>
<DataArray  type="Float64"  NumberOfComponents="3"  format="ascii">0 0 0  0.03125 0 0  0.0625 0 0  0.09375 0 0  0.125 0 0  0.15625 0 0  0.1875 0 0  0.21875 0 0  0.25 0 0  0.28125 0 0  0.3125 0 0  0.34375 0 0  0.375 0 0  0.40625 0 0  0.4375 0 0  0.46875 0 0  0.5 0 0  0.53125 0 0  0.5625 0 0  0.59375 0 0  0.625 0 0  0.65625 0 0  0.6875 0 0  0.71875 0 0  0.75 0 0  0.78125 0 0  0.8125 0 0  0.84375 0 0  0.875 0 0  0.90625 0 0  0.9375 0 0  0.96875 0 0  1 0 0  0 0.046875 0  0.03125 0.046875 0  0.0625 0.046875 0  0.09375 0.046875 0  0.125 0.046875 0  0.15625 0.046875 0  0.1875 0.046875 0  0.21875 0.046875 0  0.25 0.046875 0  0.28125 0.046875 0  0.3125 0.046875 0  0.34375 0.046875 0  0.375 0.046875 0  0.40625 0.046875 0  0.4375 0.046875 0  0.46875 0.046875 0  0.5 0.046875 0  0.53125 0.046875 0  0.5625 0.046875 0  0.59375 0.046875 0  0.625 0.046875 0  0.65625 0.046875 0  0.6875 0.046875 0  0.71875 0.046875 0  0.75 0.046875 0  0.78125 0.046875 0  0.8125 0.046875 0  0.84375 0.046875 0  0.875 0.046875 0  0.90625 0.046875 0  0.9375 0.046875 0  0.96875 0.046875 0  1 0.046875 0  0 0.09375 0  0.03125 0.09375 0  0.0625 0.09375 0  0.09375 0.09375 0  0.125 0.09375 0  0.15625 0.09375 0  0.1875 0.09375 0  0.21875 0.09375 0  0.25 0.09375 0  0.28125 0.09375 0  0.3125 0.09375 0  0.34375 0.09375 0  0.375 0.09375 0  0.40625 0.09375 0  0.4375 0.09375 0  0.46875 0.09375 0  0.5 0.09375 0  0.53125 0.09375 0  0.5625 0.09375 0  0.59375 0.09375 0  0.625 0.09375 0  0.65625 0.09375 0  0.6875 0.09375 0  0.71875 0.09375 0  0.75 0.09375 0  0.78125 0.09375 0  0.8125 0.09375 0  0.84375 0.09375 0  0.875 0.09375 0  0.90625 0.09375 0  0.9375 0.09375 0  0.96875 0.09375 0  1 0.09375 0  0 0.140625 0  0.03125 0.140625 0  0.0625 0.140625 0  0.09375 0.140625 0  0.125 0.140625 0  0.15625 0.140625 0  0.1875 0.140625 0  0.21875 0.140625 0  0.25 0.140625 0  0.28125 0.140625 0  0.3125 0.140625 0  0.34375 0.140625 0  0.375 0.140625 0  0.40625 0.140625 0  0.4375 0.140625 0  0.46875 0.140625 0  0.5 0.140625 0  0.53125 0.140625 0  0.5625 0.140625 0  0.59375 0.140625 0  0.625 0.140625 0  0.65625 0.140625 0  0.6875 0.140625 0  0.71875 0.140625 0  0.75 0.140625 0  0.78125 0.140625 0  0.8125 0.140625 0  0.84375 0.140625 0  0.875 0.140625 0  0.90625 0.140625 0  0.9375 0.140625 0  0.96875 0.140625 0  1 0.140625 0  0 0.1875 0  0.03125 0.1875 0  0.0625 0.1875 0  0.09375 0.1875 0  0.125 0.1875 0  0.15625 0.1875 0  0.1875 0.1875 0  0.21875 0.1875 0  0.25 0.1875 0  0.28125 0.1875 0  0.3125 0.1875 0  0.34375 0.1875 0  0.375 0.1875 0  0.40625 0.1875 0  0.4375 0.1875 0  0.46875 0.1875 0  0.5 0.1875 0  0.53125 0.1875 0  0.5625 0.1875 0  0.59375 0.1875 0  0.625 0.1875 0  0.65625 0.1875 0  0.6875 0.1875 0  0.71875 0.1875 0  0.75 0.1875 0  0.78125 0.1875 0  0.8125 0.1875 0  0.84375 0.1875 0  0.875 0.1875 0  0.90625 0.1875 0  0.9375 0.1875 0  0.96875 0.1875 0  1 0.1875 0  0 0.234375 0  0.03125 0.234375 0  0.0625 0.234375 0  0.09375 0.234375 0  0.125 0.234375 0  0.15625 0.234375 0  0.1875 0.234375 0  0.21875 0.234375 0  0.25 0.234375 0  0.28125 0.234375 0  0.3125 0.234375 0  0.34375 0.234375 0  0.375 0.234375 0  0.40625 0.234375 0  0.4375 0.234375 0  0.46875 0.234375 0  0.5 0.234375 0  0.53125 0.234375 0  0.5625 0.234375 0  0.59375 0.234375 0  0.625 0.234375 0  0.65625 0.234375 0  0.6875 0.234375 0  0.71875 0.234375 0  0.75 0.234375 0  0.78125 0.234375 0  0.8125 0.234375 0  0.84375 0.234375 0  0.875 0.234375 0  0.90625 0.234375 0  0.9375 0.234375 0  0.96875 0.234375 0  1 0.234375 0  0 0.28125 0  0.03125 0.28125 0  0.0625 0.28125 0  0.09375 0.28125 0  0.125 0.28125 0  0.15625 0.28125 0  0.1875 0.28125 0  0.21875 0.28125 0  0.25 0.28125 0  0.28125 0.28125 0  0.3125 0.28125 0  0.34375 0.28125 0  0.375 0.28125 0  0.40625 0.28125 0  0.4375 0.28125 0  0.46875 0.28125 0  0.5 0.28125 0  0.53125 0.28125 0  0.5625 0.28125 0  0.59375 0.28125 0  0.625 0.28125 0  0.65625 0.28125 0  0.6875 0.28125 0  0.71875 0.28125 0  0.75 0.28125 0  0.78125 0.28125 0  0.8125 0.28125 0  0.84375 0.28125 0  0.875 0.28125 0  0.90625 0.28125 0  0.9375 0.28125 0  0.96875 0.28125 0  1 0.28125 0  0 0.328125 0  0.03125 0.328125 0  0.0625 0.328125 0  0.09375 0.328125 0  0.125 0.328125 0  0.15625 0.328125 0  0.1875 0.328125 0  0.21875 0.328125 0  0.25 0.328125 0  0.28125 0.328125 0  0.3125 0.328125 0  0.34375 0.328125 0  0.375 0.328125 0  0.40625 0.328125 0  0.4375 0.328125 0  0.46875 0.328125 0  0.5 0.328125 0  0.53125 0.328125 0  0.5625 0.328125 0  0.59375 0.328125 0  0.625 0.328125 0  0.65625 0.328125 0  0.6875 0.328125 0  0.71875 0.328125 0  0.75 0.328125 0  0.78125 0.328125 0  0.8125 0.328125 0  0.84375 0.328125 0  0.875 0.328125 0  0.90625 0.328125 0  0.9375 0.328125 0  0.96875 0.328125 0  1 0.328125 0  0 0.375 0  0.03125 0.375 0  0.0625 0.375 0  0.09375 0.375 0  0.125 0.375 0  0.15625 0.375 0  0.1875 0.375 0  0.21875 0.375 0  0.25 0.375 0  0.28125 0.375 0  0.3125 0.375 0  0.34375 0.375 0  0.375 0.375 0  0.40625 0.375 0  0.4375 0.375 0  0.46875 0.375 0  0.5 0.375 0  0.53125 0.375 0  0.5625 0.375 0  0.59375 0.375 0  0.625 0.375 0  0.65625 0.375 0  0.6875 0.375 0  0.71875 0.375 0  0.75 0.375 0  0.78125 0.375 0  0.8125 0.375 0  0.84375 0.375 0  0.875 0.375 0  0.90625 0.375 0  0.9375 0.375 0  0.96875 0.375 0  1 0.375 0  0 0.421875 0  0.03125 0.421875 0  0.0625 0.421875 0  0.09375 0.421875 0  0.125 0.421875 0  0.15625 0.421875 0  0.1875 0.421875 0  0.21875 0.421875 0  0.25 0.421875 0  0.28125 0.421875 0  0.3125 0.421875 0  0.34375 0.421875 0  0.375 0.421875 0  0.40625 0.421875 0  0.4375 0.421875 0  0.46875 0.421875 0  0.5 0.421875 0  0.53125 0.421875 0  0.5625 0.421875 0  0.59375 0.421875 0  0.625 0.421875 0  0.65625 0.421875 0  0.6875 0.421875 0  0.71875 0.421875 0  0.75 0.421875 0  0.78125 0.421875 0  0.8125 0.421875 0  0.84375 0.421875 0  0.875 0.421875 0  0.90625 0.421875 0  0.9375 0.421875 0  0.96875 0.421875 0  1 0.421875 0  0 0.46875 0  0.03125 0.46875 0  0.0625 0.46875 0  0.09375 0.46875 0  0.125 0.46875 0  0.15625 0.46875 0  0.1875 0.46875 0  0.21875 0.46875 0  0.25 0.46875 0  0.28125 0.46875 0  0.3125 0.46875 0  0.34375 0.46875 0  0.375 0.46875 0  0.40625 0.46875 0  0.4375 0.46875 0  0.46875 0.46875 0  0.5 0.46875 0  0.53125 0.46875 0  0.5625 0.46875 0  0.59375 0.46875 0  0.625 0.46875 0  0.65625 0.46875 0  0.6875 0.46875 0  0.71875 0.46875 0  0.75 0.46875 0  0.78125 0.46875 0  0.8125 0.46875 0  0.84375 0.46875 0  0.875 0.46875 0  0.90625 0.46875 0  0.9375 0.46875 0  0.96875 0.46875 0  1 0.46875 0  0 0.515625 0  0.03125 0.515625 0  0.0625 0.515625 0  0.09375 0.515625 0  0.125 0.515625 0  0.15625 0.515625 0  0.1875 0.515625 0  0.21875 0.515625 0  0.25 0.515625 0  0.28125 0.515625 0  0.3125 0.515625 0  0.34375 0.515625 0  0.375 0.515625 0  0.40625 0.515625 0  0.4375 0.515625 0  0.46875 0.515625 0  0.5 0.515625 0  0.53125 0.515625 0  0.5625 0.515625 0  0.59375 0.515625 0  0.625 0.515625 0  0.65625 0.515625 0  0.6875 0.515625 0  0.71875 0.515625 0  0.75 0.515625 0  0.78125 0.515625 0  0.8125 0.515625 0  0.84375 0.515625 0  0.875 0.515625 0  0.90625 0.515625 0  0.9375 0.515625 0  0.96875 0.515625 0  1 0.515625 0  0 0.5625 0  0.03125 0.5625 0  0.0625 0.5625 0  0.09375 0.5625 0  0.125 0.5625 0  0.15625 0.5625 0  0.1875 0.5625 0  0.21875 0.5625 0  0.25 0.5625 0  0.28125 0.5625 0  0.3125 0.5625 0  0.34375 0.5625 0  0.375 0.5625 0  0.40625 0.5625 0  0.4375 0.5625 0  0.46875 0.5625 0  0.5 0.5625 0  0.53125 0.5625 0  0.5625 0.5625 0  0.59375 0.5625 0  0.625 0.5625 0  0.65625 0.5625 0  0.6875 0.5625 0  0.71875 0.5625 0  0.75 0.5625 0  0.78125 0.5625 0  0.8125 0.5625 0  0.84375 0.5625 0  0.875 0.5625 0  0.90625 0.5625 0  0.9375 0.5625 0  0.96875 0.5625 0  1 0.5625 0  0 0.609375 0  0.03125 0.609375 0  0.0625 0.609375 0  0.09375 0.609375 0  0.125 0.609375 0  0.15625 0.609375 0  0.1875 0.609375 0  0.21875 0.609375 0  0.25 0.609375 0  0.28125 0.609375 0  0.3125 0.609375 0  0.34375 0.609375 0  0.375 0.609375 0  0.40625 0.609375 0  0.4375 0.609375 0  0.46875 0.609375 0  0.5 0.609375 0  0.53125 0.609375 0  0.5625 0.609375 0  0.59375 0.609375 0  0.625 0.609375 0  0.65625 0.609375 0  0.6875 0.609375 0  0.71875 0.609375 0  0.75 0.609375 0  0.78125 0.609375 0  0.8125 0.609375 0  0.84375 0.609375 0  0.875 0.609375 0  0.90625 0.609375 0  0.9375 0.609375 0  0.96875 0.609375 0  1 0.609375 0  0 0.65625 0  0.03125 0.65625 0  0.0625 0.65625 0  0.09375 0.65625 0  0.125 0.65625 0  0.15625 0.65625 0  0.1875 0.65625 0  0.21875 0.65625 0  0.25 0.65625 0  0.28125 0.65625 0  0.3125 0.65625 0  0.34375 0.65625 0  0.375 0.65625 0  0.40625 0.65625 0  0.4375 0.65625 0  0.46875 0.65625 0  0.5 0.65625 0  0.53125 0.65625 0  0.5625 0.65625 0  0.59375 0.65625 0  0.625 0.65625 0  0.65625 0.65625 0  0.6875 0.65625 0  0.71875 0.65625 0  0.75 0.65625 0  0.78125 0.65625 0  0.8125 0.65625 0  0.84375 0.65625 0  0.875 0.65625 0  0.90625 0.65625 0  0.9375 0.65625 0  0.96875 0.65625 0  1 0.65625 0  0 0.703125 0  0.03125 0.703125 0  0.0625 0.703125 0  0.09375 0.703125 0  0.125 0.703125 0  0.15625 0.703125 0  0.1875 0.703125 0  0.21875 0.703125 0  0.25 0.703125 0  0.28125 0.703125 0  0.3125 0.703125 0  0.34375 0.703125 0  0.375 0.703125 0  0.40625 0.703125 0  0.4375 0.703125 0  0.46875 0.703125 0  0.5 0.703125 0  0.53125 0.703125 0  0.5625 0.703125 0  0.59375 0.703125 0  0.625 0.703125 0  0.65625 0.703125 0  0.6875 0.703125 0  0.71875 0.703125 0  0.75 0.703125 0  0.78125 0.703125 0  0.8125 0.703125 0  0.84375 0.703125 0  0.875 0.703125 0  0.90625 0.703125 0  0.9375 0.703125 0  0.96875 0.703125 0  1 0.703125 0  0 0.75 0  0.03125 0.75 0  0.0625 0.75 0  0.09375 0.75 0  0.125 0.75 0  0.15625 0.75 0  0.1875 0.75 0  0.21875 0.75 0  0.25 0.75 0  0.28125 0.75 0  0.3125 0.75 0  0.34375 0.75 0  0.375 0.75 0  0.40625 0.75 0  0.4375 0.75 0  0.46875 0.75 0  0.5 0.75 0  0.53125 0.75 0  0.5625 0.75 0  0.59375 0.75 0  0.625 0.75 0  0.65625 0.75 0  0.6875 0.75 0  0.71875 0.75 0  0.75 0.75 0  0.78125 0.75 0  0.8125 0.75 0  0.84375 0.75 0  0.8
[...]
<PointData  Vectors="f_245"> 
<DataArray  type="Float64"  Name="f_245"  NumberOfComponents="3" format="ascii">2.8874771979358138e-03 0.0000000000000000e+00 0.0000000000000000e+00  8.6623352953562275e-03 0.0000000000000000e+00 0.0000000000000000e+00  1.4436904500634590e-02 0.0000000000000000e+00 0.0000000000000000e+00  2.0210992229714723e-02 0.0000000000000000e+00 0.0000000000000000e+00  2.5984405914597868e-02 0.0000000000000000e+00 0.0000000000000000e+00  3.1756953009764888e-02 0.0000000000000000e+00 0.0000000000000000e+00  3.7528440998597735e-02 0.0000000000000000e+00 0.0000000000000000e+00  4.3298677399799965e-02 0.0000000000000000e+00 0.0000000000000000e+00  4.9067469773816041e-02 0.0000000000000000e+00 0.0000000000000000e+00  5.4834625729249298e-02 0.0000000000000000e+00 0.0000000000000000e+00  6.0599952929278222e-02 0.0000000000000000e+00 0.0000000000000000e+00  6.6363259098071004e-02 0.0000000000000000e+00 0.0000000000000000e+00  7.2124352027197941e-02 0.0000000000000000e+00 0.0000000000000000e+00  7.7883039582041777e-02 0.0000000000000000e+00 0.0000000000000000e+00  8.3639129708205334e-02 0.0000000000000000e+00 0.0000000000000000e+00  8.9392430437916670e-02 0.0000000000000000e+00 0.0000000000000000e+00  9.5142749896431289e-02 0.0000000000000000e+00 0.0000000000000000e+00  1.0088989630843120e-01 0.0000000000000000e+00 0.0000000000000000e+00  1.0663367800442070e-01 0.0000000000000000e+00 0.0000000000000000e+00  1.1237390342711862e-01 0.0000000000000000e+00 0.0000000000000000e+00  1.1811038113784686e-01 0.0000000000000000e+00 0.0000000000000000e+00  1.2384291982291494e-01 0.0000000000000000e+00 0.0000000000000000e+00  1.2957132830000034e-01 0.0000000000000000e+00 0.0000000000000000e+00  1.3529541552452454e-01 0.0000000000000000e+00 0.0000000000000000e+00  1.4101499059602440e-01 0.0000000000000000e+00 0.0000000000000000e+00  1.4672986276451885e-01 0.0000000000000000e+00 0.0000000000000000e+00  1.5243984143687034e-01 0.0000000000000000e+00 0.0000000000000000e+00  1.5814473618314123e-01 0.0000000000000000e+00 0.0000000000000000e+00  1.6384435674294484e-01 0.0000000000000000e+00 0.0000000000000000e+00  1.6953851303179046e-01 0.0000000000000000e+00 0.0000000000000000e+00  1.7522701514742300e-01 0.0000000000000000e+00 0.0000000000000000e+00  1.8090967337615607e-01 0.0000000000000000e+00 0.0000000000000000e+00  2.7249559200186163e-01 0.0000000000000000e+00 0.0000000000000000e+00  1.9225670029897815e-01 0.0000000000000000e+00 0.0000000000000000e+00  1.9792069056544898e-01 0.0000000000000000e+00 0.0000000000000000e+00  2.0357808010240469e-01 0.0000000000000000e+00 0.0000000000000000e+00  2.0922868023377517e-01 0.0000000000000000e+00 0.0000000000000000e+00  2.1487230250991954e-01 0.0000000000000000e+00 0.0000000000000000e+00  2.2050875871391093e-01 0.0000000000000000e+00 0.0000000000000000e+00  2.2613786086781376e-01 0.0000000000000000e+00 0.0000000000000000e+00  2.3175942123895277e-01 0.0000000000000000e+00 0.0000000000000000e+00  2.3737325234617396e-01 0.0000000000000000e+00 0.0000000000000000e+00  2.4297916696609728e-01 0.0000000000000000e+00 0.0000000000000000e+00  2.4857697813936036e-01 0.0000000000000000e+00 0.0000000000000000e+00  2.5416649917685397e-01 0.0000000000000000e+00 0.0000000000000000e+00  2.5974754366594793e-01 0.0000000000000000e+00 0.0000000000000000e+00  2.6531992547670824e-01 0.0000000000000000e+00 0.0000000000000000e+00  2.7088345876810432e-01 0.0000000000000000e+00 0.0000000000000000e+00  2.7643795799420723e-01 0.0000000000000000e+00 0.0000000000000000e+00  2.8198323791037749e-01 0.0000000000000000e+00 0.0000000000000000e+00  2.8751911357944282e-01 0.0000000000000000e+00 0.0000000000000000e+00  2.9304540037786636e-01 0.0000000000000000e+00 0.0000000000000000e+00  2.9856191400190374e-01 0.0000000000000000e+00 0.0000000000000000e+00  3.0406847047374946e-01 0.0000000000000000e+00 0.0000000000000000e+00  3.0956488614767286e-01 0.0000000000000000e+00 0.0000000000000000e+00  3.1505097771614277e-01 0.0000000000000000e+00 0.0000000000000000e+00  3.2052656221594072e-01 0.0000000000000000e+00 0.0000000000000000e+00  3.2599145703426297e-01 0.0000000000000000e+00 0.0000000000000000e+00  3.3144547991481077e-01 0.0000000000000000e+00 0.0000000000000000e+00  3.3688844896386838e-01 0.0000000000000000e+00 0.0000000000000000e+00  3.4232018265636965e-01 0.0000000000000000e+00 0.0000000000000000e+00  3.4774049984195188e-01 0.0000000000000000e+00 0.0000000000000000e+00  3.5314921975099700e-01 0.0000000000000000e+00 0.0000000000000000e+00  3.5854616200066058e-01 0.0000000000000000e+00 0.0000000000000000e+00  3.6393114660088743e-01 0.0000000000000000e+00 0.0000000000000000e+00  4.4897698836101563e-01 0.0000000000000000e+00 0.0000000000000000e+00  3.7466452489276092e-01 0.0000000000000000e+00 0.0000000000000000e+00  3.8001256062220207e-01 0.0000000000000000e+00 0.0000000000000000e+00  3.8534792278973395e-01 0.0000000000000000e+00 0.0000000000000000e+00  3.9067043345902042e-01 0.0000000000000000e+00 0.0000000000000000e+00  3.9597991512232750e-01 0.0000000000000000e+00 0.0000000000000000e+00  4.0127619070644360e-01 0.0000000000000000e+00 0.0000000000000000e+00  4.0655908357858495e-01 0.0000000000000000e+00 0.0000000000000000e+00  4.1182841755228600e-01 0.0000000000000000e+00 0.0000000000000000e+00  4.1708401689327568e-01 0.0000000000000000e+00 0.0000000000000000e+00  4.2232570632533806e-01 0.0000000000000000e+00 0.0000000000000000e+00  4.2755331103615812e-01 0.0000000000000000e+00 0.0000000000000000e+00  4.3276665668315117e-01 0.0000000000000000e+00 0.0000000000000000e+00  4.3796556939927805e-01 0.0000000000000000e+00 0.0000000000000000e+00  4.4314987579884313e-01 0.0000000000000000e+00 0.0000000000000000e+00  4.4831940298327699e-01 0.0000000000000000e+00 0.0000000000000000e+00  4.5347397854690247e-01 0.0000000000000000e+00 0.0000000000000000e+00  4.5861343058268467e-01 0.0000000000000000e+00 0.0000000000000000e+00  4.6373758768796414e-01 0.0000000000000000e+00 0.0000000000000000e+00  4.6884627897017284e-01 0.0000000000000000e+00 0.0000000000000000e+00  4.7393933405253408e-01 0.0000000000000000e+00 0.0000000000000000e+00  4.7901658307974404e-01 0.0000000000000000e+00 0.0000000000000000e+00  4.8407785672363690e-01 0.0000000000000000e+00 0.0000000000000000e+00  4.8912298618883210e-01 0.0000000000000000e+00 0.0000000000000000e+00  4.9415180321836305e-01 0.0000000000000000e+00 0.0000000000000000e+00  4.9916414009928944e-01 0.0000000000000000e+00 0.0000000000000000e+00  5.0415982966829009e-01 0.0000000000000000e+00 0.0000000000000000e+00  5.0913870531723737e-01 0.0000000000000000e+00 0.0000000000000000e+00  5.1410060099875510e-01 0.0000000000000000e+00 0.0000000000000000e+00  5.1904535123175477e-01 0.0000000000000000e+00 0.0000000000000000e+00  5.2397279110695538e-01 0.0000000000000000e+00 0.0000000000000000e+00  5.2888275629238246e-01 0.0000000000000000e+00 0.0000000000000000e+00  5.3377508303884946e-01 0.0000000000000000e+00 0.0000000000000000e+00  6.0920143382217851e-01 0.0000000000000000e+00 0.0000000000000000e+00  5.4350616916484040e-01 0.0000000000000000e+00 0.0000000000000000e+00  5.4834460400898011e-01 0.0000000000000000e+00 0.0000000000000000e+00  5.5316475135421395e-01 0.0000000000000000e+00 0.0000000000000000e+00  5.5796645044681425e-01 0.0000000000000000e+00 0.0000000000000000e+00  5.6274954114830900e-01 0.0000000000000000e+00 0.0000000000000000e+00  5.6751386394082348e-01 0.0000000000000000e+00 0.0000000000000000e+00  5.7225925993239946e-01 0.0000000000000000e+00 0.0000000000000000e+00  5.7698557086229485e-01 0.0000000000000000e+00 0.0000000000000000e+00  5.8169263910626112e-01 0.0000000000000000e+00 0.0000000000000000e+00  5.8638030768180127e-01 0.0000000000000000e+00 0.0000000000000000e+00  5.9104842025340409e-01 0.0000000000000000e+00 0.0000000000000000e+00  5.9569682113775846e-01 0.0000000000000000e+00 0.0000000000000000e+00  6.0032535530894560e-01 0.0000000000000000e+00 0.0000000000000000e+00  6.0493386840360897e-01 0.0000000000000000e+00 0.0000000000000000e+00  6.0952220672610236e-01 0.0000000000000000e+00 0.0000000000000000e+00  6.1409021725361623e-01 0.0000000000000000e+00 0.0000000000000000e+00  6.1863774764128021e-01 0.0000000000000000e+00 0.0000000000000000e+00  6.2316464622724443e-01 0.0000000000000000e+00 0.0000000000000000e+00  6.2767076203773775e-01 0.0000000000000000e+00 0.0000000000000000e+00  6.3215594479210158e-01 0.0000000000000000e+00 0.0000000000000000e+00  6.3662004490780344e-01 0.0000000000000000e+00 0.0000000000000000e+00  6.4106291350542433e-01 0.0000000000000000e+00 0.0000000000000000e+00  6.4548440241362459e-01 0.0000000000000000e+00 0.0000000000000000e+00  6.4988436417408524e-01 0.0000000000000000e+00 0.0000000000000000e+00  6.5426265204642564e-01 0.0000000000000000e+00 0.0000000000000000e+00  6.5861912001309730e-01 0.0000000000000000e+00 0.0000000000000000e+00  6.6295362278425451e-01 0.0000000000000000e+00 0.0000000000000000e+00  6.6726601580259814e-01 0.0000000000000000e+00 0.0000000000000000e+00  6.7155615524819834e-01 0.0000000000000000e+00 0.0000000000000000e+00  6.7582389804329024e-01 0.0000000000000000e+00 0.0000000000000000e+00  6.8006910185704517e-01 0.0000000000000000e+00 0.0000000000000000e+00  6.8429162511031849e-01 0.0000000000000000e+00 0.0000000000000000e+00  7.4736738173586914e-01 0.0000000000000000e+00 0.0000000000000000e+00  6.9266806740556364e-01 0.0000000000000000e+00 0.0000000000000000e+00  6.9682170709003266e-01 0.0000000000000000e+00 0.0000000000000000e+00  7.0095210750833092e-01 0.0000000000000000e+00 0.0000000000000000e+00  7.0505913091005001e-01 0.0000000000000000e+00 0.0000000000000000e+00  7.0914264032441388e-01 0.0000000000000000e+00 0.0000000000000000e+00  7.1320249956484671e-01 0.0000000000000000e+00 0.0000000000000000e+00  7.1723857323351525e-01 0.0000000000000000e+00 0.0000000000000000e+00  7.2125072672584345e-01 0.0000000000000000e+00 0.0000000000000000e+00  7.2523882623500258e-01 0.0000000000000000e+00 0.0000000000000000e+00  7.2920273875637309e-01 0.0000000000000000e+00 0.0000000000000000e+00  7.3314233209198054e-01 0.0000000000000000e+00 0.0000000000000000e+00  7.3705747485490469e-01 0.0000000000000000e+00 0.0000000000000000e+00  7.4094803647366092e-01 0.0000000000000000e+00 0.0000000000000000e+00  7.4481388719655517e-01 0.0000000000000000e+00 0.0000000000000000e+00  7.4865489809601082e-01 0.0000000000000000e+00 0.0000000000000000e+00  7.5247094107286905e-01 0.0000000000000000e+00 0.0000000000000000e+00  7.5626188886066037e-01 0.0000000000000000e+00 0.0000000000000000e+00  7.6002761502984928e-01 0.0000000000000000e+00 0.0000000000000000e+00  7.6376799399205109e-01 0.0000000000000000e+00 0.0000000000000000e+00  7.6748290100421968e-01 0.0000000000000000e+00 0.0000000000000000e+00  7.7117221217280796e-01 0.0000000000000000e+00 0.0000000000000000e+00  7.7483580445790023e-01 0.0000000000000000e+00 0.0000000000000000e+00  7.7847355567731502e-01 0.0000000000000000e+00 0.0000000000000000e+00  7.8208534451068012e-01 0.0000000000000000e+00 0.0000000000000000e+00  7.8567105050347852e-01 0.0000000000000000e+00 0.0000000000000000e+00  7.8923055407106624e-01 0.0000000000000000e+00 0.0000000000000000e+00  7.9276373650265963e-01 0.0000000000000000e+00 0.0000000000000000e+00  7.9627047996529488e-01 0.0000000000000000e+00 0.0000000000000000e+00  7.9975066750775770e-01 0.0000000000000000e+00 0.0000000000000000e+00  8.0320418306448405e-01 0.0000000000000000e+00 0.0000000000000000e+00  8.0663091145943033e-01 0.0000000000000000e+00 0.0000000000000000e+00  8.1003073840991480e-01 0.0000000000000000e+00 0.0000000000000000e+00  8.5847199879607161e-01 0.0000000000000000e+00 0.0000000000000000e+00  8.1674923533642052e-01 0.0000000000000000e+00 0.0000000000000000e+00  8.2006768124804086e-01 0.0000000000000000e+00 0.0000000000000000e+00  8.2335877759387022e-01 0.0000000000000000e+00 0.0000000000000000e+00  8.2662241461460717e-01 0.0000000000000000e+00 0.0000000000000000e+00  8.2985848346672864e-01 0.0000000000000000e+00 0.0000000000000000e+00  8.3306687622612063e-01 0.0000000000000000e+00 0.0000000000000000e+00  8.3624748589167708e-01 0.0000000000000000e+00 0.0000000000000000e+00  8.3940020638886892e-01 0.0000000000000000e+00 0.0000000000000000e+00  8.4252493257328087e-01 0.0000000000000000e+00 0.0000000000000000e+00  8.4562156023411872e-01 0.0000000000000000e+00 0.0000000000000000e+00  8.4868998609768465e-01 0.0000000000000000e+00 0.0000000000000000e+00  8.5173010783082148e-01 0.0000000000000000e+00 0.0000000000000000e+00  8.5474182404432519e-01 0.0000000000000000e+00 0.0000000000000000e+00  8.5772503429632663e-01 0.0000000000000000e+00 0.0000000000000000e+00  8.6067963909564116e-01 0.0000000000000000e+00 0.0000000000000000e+00  8.6360553990508693e-01 0.0000000000000000e+00 0.0000000000000000e+00  8.6650263914477077e-01 0.0000000000000000e+00 0.0000000000000000e+00  8.6937084019534261e-01 0.0000000000000000e+00 0.0000000000000000e+00  8.7221004740121832e-01 0.0000000000000000e+00 0.0000000000000000e+00  8.7502016607376887e-01 0.0000000000000000e+00 0.0000000000000000e+00  8.7780110249447885e-01 0.0000000000000000e+00 0.0000000000000000e+00  8.8055276391807236e-01 0.0000000000000000e+00 0.0000000000000000e+00  8.8327505857560529e-01 0.0000000000000000e+00 0.0000000000000000e+00  8.8596789567752610e-01 0.0000000000000000e+00 0.0000000000000000e+00  8.8863118541670416e-01 0.0000000000000000e+00 0.0000000000000000e+00  8.9126483897142461e-01 0.0000000000000000e+00 0.0000000000000000e+00  8.9386876850834995e-01 0.0000000000000000e+00 0.0000000000000000e+00  8.9644288718545018e-01 0.0000000000000000e+00 0.0000000000000000e+00  8.9898710915489888e-01 0.0000000000000000e+00 0.0000000000000000e+00  9.0150134956593564e-01 0.0000000000000000e+00 0.0000000000000000e+00  9.0398552456769687e-01 0.0000000000000000e+00 0.0000000000000000e+00  9.0643955131201126e-01 0.0000000000000000e+00 0.0000000000000000e+00  9.3849231199768512e-01 0.0000000000000000e+00 0.0000000000000000e+00  9.1125683366562238e-01 0.0000000000000000e+00 0.0000000000000000e+00  9.1361992861674002e-01 0.0000000000000000e+00 0.0000000000000000e+00  9.1595255399940978e-01 0.0000000000000000e+00 0.0000000000000000e+00  9.1825463201969759e-01 0.0000000000000000e+00 0.0000000000000000e+00  9.2052608590243490e-01 0.0000000000000000e+00 0.0000000000000000e+00  9.2276683989378006e-01 0.0000000000000000e+00 0.0000000000000000e+00  9.2497681926374409e-01 0.0000000000000000e+00 0.0000000000000000e+00  9.2715595030868325e-01 0.0000000000000000e+00 0.0000000000000000e+00  9.2930416035375729e-01 0.0000000000000000e+00 0.0000000000000000e+00  9.3142137775535261e-01 0.0000000000000000e+00 0.0000000000000000e+00  9.3350753190347213e-01 0.0000000000000000e+00 0.0000000000000000e+00  9.3556255322408988e-01 0.0000000000000000e+00 0.0000000000000000e+00  9.3758637318147142e-01 0.0000000000000000e+00 0.0000000000000000e+00  9.3957892428045953e-01 0.0000000000000000e+00 0.0000000000000000e+00  9.4154014006872533e-01 0.0000000000000000e+00 0.0000000000000000e+00  9.4346995513898402e-01 0.0000000000000000e+00 0.0000000000000000e+00  9.4536830513117698e-01 0.0000000000000000e+00 0.0000000000000000e+00  9.4723512673461729e-01 0.0000000000000000e+00 0.0000000000000000e+00  9.4907035769010206e-01 0.0000000000000000e+00 0.0000000000000000e+00  9.5087393679198828e-01 0.0000000000000000e+00 0.0000000000000000e+00  9.5264580389023412e-01 0.0000000000000000e+00 0.0000000000000000e+00  9.5438589989240508e-01 0.0000000000000000e+00 0.0000000000000000e+00  9.5609416676564440e-01 0.0000000000000000e+00 0.0000000000000000e+00  9.5777054753860935e-01 0.0000000000000000e+00 0.0000000000000000e+00  9.5941498630336985e-01 0.0000000000000000e+00 0.0000000000000000e+00  9.6102742821727460e-01 0.0000000000000000e+00 0.0000000000000000e+00  9.6260781950477869e-01 0.0000000000000000e+00 0.0000000000000000e+00  9.6415610745923808e-01 0.0000000000000000e+00 0.0000000000000000e+00  9.6567224044466671e-01 0.0000000000000000e+00 0.0000000000000000e+00  9.6715616789745917e-01 0.0000000000000000e+00 0.0000000000000000e+00  9.6860784032807623e-01 0.0000000000000000e+00 0.0000000000000000e+00  9.7002720932269593e-01 0.0000000000000000e+00 0.0000000000000000e+00  9.8453087595646083e-01 0.0000000000000000e+00 0.0000000000000000e+00  9.7276884873689373e-01 0.0000000000000000e+00 0.0000000000000000e+00  9.7409102772176548e-01 0.0000000000000000e+00 0.0000000000000000e+00  9.7538072040427681e-01 0.0000000000000000e+00 0.0000000000000000e+00  9.7663788377269167e-01 0.0000000000000000e+00 0.0000000000000000e+00  9.7786247590013831e-01 0.0000000000000000e+00 0.0000000000000000e+00  9.7905445594600859e-01 0.0000000000000000e+00 0.0000000000000000e+00  9.8021378415731930e-01 0.0000000000000000e+00 0.0000000000000000e+00  9.8134042187003834e-01 0.0000000000000000e+00 0.0000000000000000e+00  9.8243433151037407e-01 0.0000000000000000e+00 0.0000000000000000e+00  9.8349547659602810e-01 0.0000000000000000e+00 0.0000000000000000e+00  9.8452382173741260e-01 0.0000000000000000e+00 0.0000000000000000e+00  9.8551933263883029e-01 0.0000000000000000e+00 0.0000000000000000e+00  9.8648197609961763e-01 0.0000000000000000e+00 0.0000000000000000e+00  9.8741172001525312e-01 0.0000000000000000e+00 0.0000000000000000e+00  9.8830853337842717e-01 0.0000000000000000e+00 0.0000000000000000e+00  9.8917238628007675e-01 0.0000000000000000e+00 0.0000000000000000e+00  9.9000324991038235e-01 0.0000000000000000e+00 0.0000000000000000e+00  9.9080109655972937e-01 0.0000000000000000e+00 0.0000000000000000e+00  9.9156589961963171e-01 0.0000000000000000e+00 0.0000000000000000e+00  9.9229763358361933e-01 0.0000000000000000e+00 0.0000000000000000e+00  9.9299627404808954e-01 0.0000000000000000e+00 0.0000000000000000e+00  9.9366179771311958e-01 0.0000000000000000e+00 0.0000000000000000e+00  9.9429418238324496e-01 0.0000000000000000e+00 0.0000000000000000e+00  9.9489340696819872e-01 0.0000000000000000e+00 0.0000000000000000e+00  9.9545945148361570e-01 0.0000000000000000e+00 0.0000000000000000e+00  9.9599229705169812e-01 0.0000000000000000e+00 0.0000000000000000e+00  9.9649192590184588e-01 0.0000000000000000e+00 0.0000000000000000e+00  9.9695832137124873e-01 0.0000000000000000e+00 0.0000000000000000e+00  9.9739146790544220e-01 0.0000000000000000e+00 0.0000000000000000e+00  9.9779135105882644e-01 0.0000000000000000e+00 0.0000000000000000e+00  9.9815795749514780e-01 0.0000000000000000e+00 0.0000000000000000e+00  9.9849127498794354e-01 0.0000000000000000e+00 0.0000000000000000e+00  9.9492068614189044e-01 0.0000000000000000e+00 0.0000000000000000e+00  9.9905799978847276e-01 0.0000000000000000e+00 0.0000000000000000e+00  9.9929138819572083e-01 0.0000000000000000e+00 0.0000000000000000e+00  9.9949144985910288e-01 0.0000000000000000e+00 0.0000000000000000e+00  9.9965817810648727e-01 0.0000000000000000e+00 0.0000000000000000e+00  9.9979156737742403e-01 0.0000000000000000e+00 0.0000000000000000e+00  9.9989161322333109e-01 0.0000000000000000e+00 0.0000000000000000e+00  9.9995831230764154e-01 0.0000000000000000e+00 0.0000000000000000e+00  9.9999166240591597e-01 0.0000000000000000e+00 0.0000000000000000e+00  9.9999166240591597e-01 0.0000000000000000e+00 0.0000000000000000e+00  9.9995831230764154e-01 0.0000000000000000e+00 0.0000000000000000e+00  9.9989161322333109e-01 0.0000000000000000e+00 0.0000000000000000e+00  9.9979156737742403e-01 0.0000000000000000e+00 0.0000000000000000e+00  9.9965817810648727e-01 0.0000000000000000e+00 0.0000000000000000e+00  9.9949144985910288e-01 0.0000000000000000e+00 0.0000000000000000e+00  9.9929138819572083e-01 0.0000000000000000e+00 0.0000000000000000e+00  9.9905799978847276e-01 0.0000000000000000e+00 0.0000000000000000e+00  9.9879129242094988e-01 0.0000000000000000e+00 0.0000000000000000e+00  9.9849127498794354e-01 0.0000000000000000e+00 0.0000000000000000e+00  9.9815795749514780e-01 0.0000000000000000e+00 0.0000000000000000e+00  9.9779135105882644e-01 0.0000000000000000e+00 0.0000000000000000e+00  9.97391467