<?xml version="1.0"?>
<VTKFile type="UnstructuredGrid"  version="0.1"  >
<UnstructuredGrid>
<Piece  NumberOfPoints="25" NumberOfCells="32">
<Points>
<DataArray  type="Float64"  NumberOfComponents="3"  format="ascii">0 0 0  0.25 0 0  0.5 0 0  0.75 0 0  1 0 0  0 0.375 0  0.25 0.375 0  0.5 0.375 0  0.75 0.375 0  1 0.375 0  0 0.75 0  0.25 0.75 0  0.5 0.75 0  0.75 0.75 0  1 0.75 0  0 1.125 0  0.25 1.125 0  0.5 1.125 0  0.75 1.125 0  1 1.125 0  0 1.5 0  0.25 1.5 0  0.5 1.5 0  0.75 1.5 0  1 1.5 0  </DataArray>
</Points>
<Cells>
<DataArray  type="UInt32"  Name="connectivity"  format="ascii">0 1 5  1 5 6  1 2 6  2 6 7  2 3 7  3 7 8  3 4 8  4 8 9  5 6 10  6 10 11  6 7 11  7 11 12  7 8 12  8 12 13  8 9 13  9 13 14  10 11 15  11 15 16  11 12 16  12 16 17  12 13 17  13 17 18  13 14 18  14 18 19  15 16 20  16 20 21  16 17 21  17 21 22  17 18 22  18 22 23  18 19 23  19 23 24  </DataArray>
<DataArray  type="UInt32"  Name="offsets"  format="ascii">3 6 9 12 15 18 21 24 27 30 33 36 39 42 45 48 51 54 57 60 63 66 69 72 75 78 81 84 87 90 93 96 </DataArray>
<DataArray  type="UInt8"  Name="types"  format="ascii">5 5 5 5 5 5 5 5 5 5 5 5 5 5 5 5 5 5 5 5 5 5 5 5 5 5 5 5 5 5 5 5 </DataArray>
</Cells>
<PointData  Scalars="f_75"> 
<DataArray  type="Float64"  Name="f_75"  format="ascii">0.0000000000000000e+00  2.5881904510252074e-01  4.9999999999999994e-01  7.0710678118654746e-01  8.6602540378443860e-01  9.6592582628906820e-01  1.0000000000000000e+00  9.6592582628906831e-01  8.6602540378443871e-01  7.0710678118654757e-01  5.0000000000000033e-01  2.5881904510252102e-01  0.0000000000000000e+00  -2.5881904510252035e-01  -4.9999999999999972e-01  -7.0710678118654713e-01  -8.6602540378443837e-01  -9.6592582628906809e-01  -1.0000000000000000e+00  -9.6592582628906842e-01  -8.6602540378443904e-01  -7.0710678118654768e-01  -5.0000000000000044e-01  -2.5881904510252157e-01  0.0000000000000000e+00  </DataArray> 
</PointData> 
</Piece>
</UnstructuredGrid>
</VTKFile>