<?xml version="1.0"?>
<VTKFile type="UnstructuredGrid"  version="0.1"  >
<UnstructuredGrid>
<Piece  NumberOfPoints="81" NumberOfCells="128">
<Points>
<DataArray  type="Float64"  NumberOfComponents="3"  format="ascii">0 0 0  0.125 0 0  0.25 0 0  0.375 0 0  0.5 0 0  0.625 0 0  0.75 0 0  0.875 0 0  1 0 0  0 0.1875 0  0.125 0.1875 0  0.25 0.1875 0  0.375 0.1875 0  0.5 0.1875 0  0.625 0.1875 0  0.75 0.1875 0  0.875 0.1875 0  1 0.1875 0  0 0.375 0  0.125 0.375 0  0.25 0.375 0  0.375 0.375 0  0.5 0.375 0  0.625 0.375 0  0.75 0.375 0  0.875 0.375 0  1 0.375 0  0 0.5625 0  0.125 0.5625 0  0.25 0.5625 0  0.375 0.5625 0  0.5 0.5625 0  0.625 0.5625 0  0.75 0.5625 0  0.875 0.5625 0  1 0.5625 0  0 0.75 0  0.125 0.75 0  0.25 0.75 0  0.375 0.75 0  0.5 0.75 0  0.625 0.75 0  0.75 0.75 0  0.875 0.75 0  1 0.75 0  0 0.9375 0  0.125 0.9375 0  0.25 0.9375 0  0.375 0.9375 0  0.5 0.9375 0  0.625 0.9375 0  0.75 0.9375 0  0.875 0.9375 0  1 0.9375 0  0 1.125 0  0.125 1.125 0  0.25 1.125 0  0.375 1.125 0  0.5 1.125 0  0.625 1.125 0  0.75 1.125 0  0.875 1.125 0  1 1.125 0  0 1.3125 0  0.125 1.3125 0  0.25 1.3125 0  0.375 1.3125 0  0.5 1.3125 0  0.625 1.3125 0  0.75 1.3125 0  0.875 1.3125 0  1 1.3125 0  0 1.5 0  0.125 1.5 0  0.25 1.5 0  0.375 1.5 0  0.5 1.5 0  0.625 1.5 0  0.75 1.5 0  0.875 1.5 0  1 1.5 0  </DataArray>
</Points>
<Cells>
<DataArray  type="UInt32"  Name="connectivity"  format="ascii">0 1 9  1 9 10  1 2 10  2 10 11  2 3 11  3 11 12  3 4 12  4 12 13  4 5 13  5 13 14  5 6 14  6 14 15  6 7 15  7 15 16  7 8 16  8 16 17  9 10 18  10 18 19  10 11 19  11 19 20  11 12 20  12 20 21  12 13 21  13 21 22  13 14 22  14 22 23  14 15 23  15 23 24  15 16 24  16 24 25  16 17 25  17 25 26  18 19 27  19 27 28  19 20 28  20 28 29  20 21 29  21 29 30  21 22 30  22 30 31  22 23 31  23 31 32  23 24 32  24 32 33  24 25 33  25 33 34  25 26 34  26 34 35  27 28 36  28 36 37  28 29 37  29 37 38  29 30 38  30 38 39  30 31 39  31 39 40  31 32 40  32 40 41  32 33 41  33 41 42  33 34 42  34 42 43  34 35 43  35 43 44  36 37 45  37 45 46  37 38 46  38 46 47  38 39 47  39 47 48  39 40 48  40 48 49  40 41 49  41 49 50  41 42 50  42 50 51  42 43 51  43 51 52  43 44 52  44 52 53  45 46 54  46 54 55  46 47 55  47 55 56  47 48 56  48 56 57  48 49 57  49 57 58  49 50 58  50 58 59  50 51 59  51 59 60  51 52 60  52 60 61  52 53 61  53 61 62  54 55 63  55 63 64  55 56 64  56 64 65  56 57 65  57 65 66  57 58 66  58 66 67  58 59 67  59 67 68  59 60 68  60 68 69  60 61 69  61 69 70  61 62 70  62 70 71  63 64 72  64 72 73  64 65 73  65 73 74  65 66 74  66 74 75  66 67 75  67 75 76  67 68 76  68 76 77  68 69 77  69 77 78  69 70 78  70 78 79  70 71 79  71 79 80  </DataArray>
<DataArray  type="UInt32"  Name="offsets"  format="ascii">3 6 9 12 15 18 21 24 27 30 33 36 39 42 45 48 51 54 57 60 63 66 69 72 75 78 81 84 87 90 93 96 99 102 105 108 111 114 117 120 123 126 129 132 135 138 141 144 147 150 153 156 159 162 165 168 171 174 177 180 183 186 189 192 195 198 201 204 207 210 213 216 219 222 225 228 231 234 237 240 243 246 249 252 255 258 261 264 267 270 273 276 279 282 285 288 291 294 297 300 303 306 309 312 315 318 321 324 327 330 333 336 339 342 345 348 351 354 357 360 363 366 369 372 375 378 381 384 </DataArray>
<DataArray  type="UInt8"  Name="types"  format="ascii">5 5 5 5 5 5 5 5 5 5 5 5 5 5 5 5 5 5 5 5 5 5 5 5 5 5 5 5 5 5 5 5 5 5 5 5 5 5 5 5 5 5 5 5 5 5 5 5 5 5 5 5 5 5 5 5 5 5 5 5 5 5 5 5 5 5 5 5 5 5 5 5 5 5 5 5 5 5 5 5 5 5 5 5 5 5 5 5 5 5 5 5 5 5 5 5 5 5 5 5 5 5 5 5 5 5 5 5 5 5 5 5 5 5 5 5 5 5 5 5 5 5 5 5 5 5 5 5 </DataArray>
</Cells>
<PointData  Scalars="f_133"> 
<DataArray  type="Float64"  Name="f_133"  format="ascii">0.0000000000000000e+00  7.8459095727844944e-02  1.5643446504023087e-01  2.3344536385590539e-01  3.0901699437494740e-01  3.8268343236508978e-01  4.5399049973954675e-01  5.2249856471594880e-01  5.8778525229247314e-01  6.4944804833018366e-01  7.0710678118654746e-01  7.6040596560003093e-01  8.0901699437494745e-01  8.5264016435409218e-01  8.9100652418836779e-01  9.2387953251128674e-01  9.5105651629515353e-01  9.7236992039767656e-01  9.8768834059513777e-01  9.9691733373312796e-01  1.0000000000000000e+00  9.9691733373312796e-01  9.8768834059513777e-01  9.7236992039767667e-01  9.5105651629515364e-01  9.2387953251128674e-01  8.9100652418836790e-01  8.5264016435409229e-01  8.0901699437494745e-01  7.6040596560003104e-01  7.0710678118654757e-01  6.4944804833018377e-01  5.8778525229247325e-01  5.2249856471594891e-01  4.5399049973954686e-01  3.8268343236508989e-01  3.0901699437494751e-01  2.3344536385590553e-01  1.5643446504023098e-01  7.8459095727845068e-02  0.0000000000000000e+00  -7.8459095727844819e-02  -1.5643446504023073e-01  -2.3344536385590528e-01  -3.0901699437494728e-01  -3.8268343236508967e-01  -4.5399049973954669e-01  -5.2249856471594869e-01  -5.8778525229247303e-01  -6.4944804833018355e-01  -7.0710678118654746e-01  -7.6040596560003060e-01  -8.0901699437494734e-01  -8.5264016435409240e-01  -8.9100652418836779e-01  -9.2387953251128652e-01  -9.5105651629515353e-01  -9.7236992039767667e-01  -9.8768834059513766e-01  -9.9691733373312796e-01  -1.0000000000000000e+00  -9.9691733373312796e-01  -9.8768834059513777e-01  -9.7236992039767678e-01  -9.5105651629515364e-01  -9.2387953251128663e-01  -8.9100652418836790e-01  -8.5264016435409251e-01  -8.0901699437494756e-01  -7.6040596560003082e-01  -7.0710678118654768e-01  -6.4944804833018421e-01  -5.8778525229247336e-01  -5.2249856471594869e-01  -4.5399049973954697e-01  -3.8268343236509039e-01  -3.0901699437494762e-01  -2.3344536385590520e-01  -1.5643446504023109e-01  -7.8459095727845624e-02  0.0000000000000000e+00  </DataArray> 
</PointData> 
</Piece>
</UnstructuredGrid>
</VTKFile>