<?xml version="1.0"?>
<VTKFile type="UnstructuredGrid"  version="0.1"  >
<UnstructuredGrid>
<Piece  NumberOfPoints="16641" NumberOfCells="32768">
<Points>
<DataArray  type="Float64"  NumberOfComponents="3"  format="ascii">0 0 0  0.0078125 0 0  0.015625 0 0  0.0234375 0 0  0.03125 0 0  0.0390625 0 0  0.046875 0 0  0.0546875 0 0  0.0625 0 0  0.0703125 0 0  0.078125 0 0  0.0859375 0 0  0.09375 0 0  0.1015625 0 0  0.109375 0 0  0.1171875 0 0  0.125 0 0  0.1328125 0 0  0.140625 0 0  0.1484375 0 0  0.15625 0 0  0.1640625 0 0  0.171875 0 0  0.1796875 0 0  0.1875 0 0  0.1953125 0 0  0.203125 0 0  0.2109375 0 0  0.21875 0 0  0.2265625 0 0  0.234375 0 0  0.2421875 0 0  0.25 0 0  0.2578125 0 0  0.265625 0 0  0.2734375 0 0  0.28125 0 0  0.2890625 0 0  0.296875 0 0  0.3046875 0 0  0.3125 0 0  0.3203125 0 0  0.328125 0 0  0.3359375 0 0  0.34375 0 0  0.3515625 0 0  0.359375 0 0  0.3671875 0 0  0.375 0 0  0.3828125 0 0  0.390625 0 0  0.3984375 0 0  0.40625 0 0  0.4140625 0 0  0.421875 0 0  0.4296875 0 0  0.4375 0 0  0.4453125 0 0  0.453125 0 0  0.4609375 0 0  0.46875 0 0  0.4765625 0 0  0.484375 0 0  0.4921875 0 0  0.5 0 0  0.5078125 0 0  0.515625 0 0  0.5234375 0 0  0.53125 0 0  0.5390625 0 0  0.546875 0 0  0.5546875 0 0  0.5625 0 0  0.5703125 0 0  0.578125 0 0  0.5859375 0 0  0.59375 0 0  0.6015625 0 0  0.609375 0 0  0.6171875 0 0  0.625 0 0  0.6328125 0 0  0.640625 0 0  0.6484375 0 0  0.65625 0 0  0.6640625 0 0  0.671875 0 0  0.6796875 0 0  0.6875 0 0  0.6953125 0 0  0.703125 0 0  0.7109375 0 0  0.71875 0 0  0.7265625 0 0  0.734375 0 0  0.7421875 0 0  0.75 0 0  0.7578125 0 0  0.765625 0 0  0.7734375 0 0  0.78125 0 0  0.7890625 0 0  0.796875 0 0  0.8046875 0 0  0.8125 0 0  0.8203125 0 0  0.828125 0 0  0.8359375 0 0  0.84375 0 0  0.8515625 0 0  0.859375 0 0  0.8671875 0 0  0.875 0 0  0.8828125 0 0  0.890625 0 0  0.8984375 0 0  0.90625 0 0  0.9140625 0 0  0.921875 0 0  0.9296875 0 0  0.9375 0 0  0.9453125 0 0  0.953125 0 0  0.9609375 0 0  0.96875 0 0  0.9765625 0 0  0.984375 0 0  0.9921875 0 0  1 0 0  0 0.01171875 0  0.0078125 0.01171875 0  0.015625 0.01171875 0  0.0234375 0.01171875 0  0.03125 0.01171875 0  0.0390625 0.01171875 0  0.046875 0.01171875 0  0.0546875 0.01171875 0  0.0625 0.01171875 0  0.0703125 0.01171875 0  0.078125 0.01171875 0  0.0859375 0.01171875 0  0.09375 0.01171875 0  0.1015625 0.01171875 0  0.109375 0.01171875 0  0.1171875 0.01171875 0  0.125 0.01171875 0  0.1328125 0.01171875 0  0.140625 0.01171875 0  0.1484375 0.01171875 0  0.15625 0.01171875 0  0.1640625 0.01171875 0  0.171875 0.01171875 0  0.1796875 0.01171875 0  0.1875 0.01171875 0  0.1953125 0.01171875 0  0.203125 0.01171875 0  0.2109375 0.01171875 0  0.21875 0.01171875 0  0.2265625 0.01171875 0  0.234375 0.01171875 0  0.2421875 0.01171875 0  0.25 0.01171875 0  0.2578125 0.01171875 0  0.265625 0.01171875 0  0.2734375 0.01171875 0  0.28125 0.01171875 0  0.2890625 0.01171875 0  0.296875 0.01171875 0  0.3046875 0.01171875 0  0.3125 0.01171875 0  0.3203125 0.01171875 0  0.328125 0.01171875 0  0.3359375 0.01171875 0  0.34375 0.01171875 0  0.3515625 0.01171875 0  0.359375 0.01171875 0  0.3671875 0.01171875 0  0.375 0.01171875 0  0.3828125 0.01171875 0  0.390625 0.01171875 0  0.3984375 0.01171875 0  0.40625 0.01171875 0  0.4140625 0.01171875 0  0.421875 0.01171875 0  0.4296875 0.01171875 0  0.4375 0.01171875 0  0.4453125 0.01171875 0  0.453125 0.01171875 0  0.4609375 0.01171875 0  0.46875 0.01171875 0  0.4765625 0.01171875 0  0.484375 0.01171875 0  0.4921875 0.01171875 0  0.5 0.01171875 0  0.5078125 0.01171875 0  0.515625 0.01171875 0  0.5234375 0.01171875 0  0.53125 0.01171875 0  0.5390625 0.01171875 0  0.546875 0.01171875 0  0.5546875 0.01171875 0  0.5625 0.01171875 0  0.5703125 0.01171875 0  0.578125 0.01171875 0  0.5859375 0.01171875 0  0.59375 0.01171875 0  0.6015625 0.01171875 0  0.609375 0.01171875 0  0.6171875 0.01171875 0  0.625 0.01171875 0  0.6328125 0.01171875 0  0.640625 0.01171875 0  0.6484375 0.01171875 0  0.65625 0.01171875 0  0.6640625 0.01171875 0  0.671875 0.01171875 0  0.6796875 0.01171875 0  0.6875 0.01171875 0  0.6953125 0.01171875 0  0.703125 0.01171875 0  0.7109375 0.01171875 0  0.71875 0.01171875 0  0.7265625 0.01171875 0  0.734375 0.01171875 0  0.7421875 0.01171875 0  0.75 0.01171875 0  0.7578125 0.01171875 0  0.765625 0.01171875 0  0.7734375 0.01171875 0  0.78125 0.01171875 0  0.7890625 0.01171875 0  0.796875 0.01171875 0  0.8046875 0.01171875 0  0.8125 0.01171875 0  0.8203125 0.01171875 0  0.828125 0.01171875 0  0.8359375 0.01171875 0  0.84375 0.01171875 0  0.8515625 0.01171875 0  0.859375 0.01171875 0  0.8671875 0.01171875 0  0.875 0.01171875 0  0.8828125 0.01171875 0  0.890625 0.01171875 0  0.8984375 0.01171875 0  0.90625 0.01171875 0  0.9140625 0.01171875 0  0.921875 0.01171875 0  0.9296875 0.01171875 0  0.9375 0.01171875 0  0.9453125 0.01171875 0  0.953125 0.01171875 0  0.9609375 0.01171875 0  0.96875 0.01171875 0  0.9765625 0.01171875 0  0.984375 0.01171875 0  0.9921875 0.01171875 0  1 0.01171875 0  0 0.0234375 0  0.0078125 0.0234375 0  0.015625 0.0234375 0  0.0234375 0.0234375 0  0.03125 0.0234375 0  0.0390625 0.0234375 0  0.046875 0.0234375 0  0.0546875 0.0234375 0  0.0625 0.0234375 0  0.0703125 0.0234375 0  0.078125 0.0234375 0  0.0859375 0.0234375 0  0.09375 0.0234375 0  0.1015625 0.0234375 0  0.109375 0.0234375 0  0.1171875 0.0234375 0  0.125 0.0234375 0  0.1328125 0.0234375 0  0.140625 0.0234375 0  0.1484375 0.0234375 0  0.15625 0.0234375 0  0.1640625 0.0234375 0  0.171875 0.0234375 0  0.1796875 0.0234375 0  0.1875 0.0234375 0  0.1953125 0.0234375 0  0.203125 0.0234375 0  0.2109375 0.0234375 0  0.21875 0.0234375 0  0.2265625 0.0234375 0  0.234375 0.0234375 0  0.2421875 0.0234375 0  0.25 0.0234375 0  0.2578125 0.0234375 0  0.265625 0.0234375 0  0.2734375 0.0234375 0  0.28125 0.0234375 0  0.2890625 0.0234375 0  0.296875 0.0234375 0  0.3046875 0.0234375 0  0.3125 0.0234375 0  0.3203125 0.0234375 0  0.328125 0.0234375 0  0.3359375 0.0234375 0  0.34375 0.0234375 0  0.3515625 0.0234375 0  0.359375 0.0234375 0  0.3671875 0.0234375 0  0.375 0.0234375 0  0.3828125 0.0234375 0  0.390625 0.0234375 0  0.3984375 0.0234375 0  0.40625 0.0234375 0  0.4140625 0.0234375 0  0.421875 0.0234375 0  0.4296875 0.0234375 0  0.4375 0.0234375 0  0.4453125 0.0234375 0  0.453125 0.0234375 0  0.4609375 0.0234375 0  0.46875 0.0234375 0  0.4765625 0.0234375 0  0.484375 0.0234375 0  0.4921875 0.0234375 0  0.5 0.0234375 0  0.5078125 0.0234375 0  0.515625 0.0234375 0  0.5234375 0.0234375 0  0.53125 0.0234375 0  0.5390625 0.0234375 0  0.546875 0.0234375 0  0.5546875 0.0234375 0  0.5625 0.0234375 0  0.5703125 0.0234375 0  0.578125 0.0234375 0  0.5859375 0.0234375 0  0.59375 0.0234375 0  0.6015625 0.0234375 0  0.609375 0.0234375 0  0.6171875 0.0234375 0  0.625 0.0234375 0  0.6328125 0.0234375 0  0.640625 0.0234375 0  0.6484375 0.0234375 0  0.65625 0.0234375 0  0.6640625 0.0234375 0  0.671875 0.0234375 0  0.6796875 0.0234375 0  0.6875 0.0234375 0  0.6953125 0.0234375 0  0.703125 0.0234375 0  0.7109375 0.0234375 0  0.71875 0.0234375 0  0.7265625 0.0234375 0  0.734375 0.0234375 0  0.7421875 0.0234375 0  0.75 0.0234375 0  0.7578125 0.0234375 0  0.765625 0.0234375 0  0.7734375 0.0234375 0  0.78125 0.0234375 0  0.7890625 0.0234375 0  0.796875 0.0234375 0  0.8046875 0.0234375 0  0.8125 0.0234375 0  0.8203125 0.0234375 0  0.828125 0.0234375 0  0.8359375 0.0234375 0  0.84375 0.0234375 0  0.8515625 0.0234375 0  0.859375 0.0234375 0  0.8671875 0.0234375 0  0.875 0.0234375 0  0.8828125 0.0234375 0  0.890625 0.0234375 0  0.8984375 0.0234375 0  0.90625 0.0234375 0  0.9140625 0.0234375 0  0.921875 0.0234375 0  0.9296875 0.0234375 0  0.9375 0.0234375 0  0.9453125 0.0234375 0  0.953125 0.0234375 0  0.9609375 0.0234375 0  0.96875 0.0234375 0  0.9765625 0.0234375 0  0.984375 0.0234375 0  0.9921875 0.0234375 0  1 0.0234375 0  0 0.03515625 0  0.0078125 0.03515625 0  0.015625 0.03515625 0  0.0234375 0.03515625 0  0.03125 0.03515625 0  0.0390625 0.03515625 0  0.046875 0.03515625 0  0.0546875 0.03515625 0  0.0625 0.03515625 0  0.0703125 0.03515625 0  0.078125 0.03515625 0  0.0859375 0.03515625 0  0.09375 0.03515625 0  0.1015625 0.03515625 0  0.109375 0.03515625 0  0.1171875 0.03515625 0  0.125 0.03515625 0  0.1328125 0.03515625 0  0.140625 0.03515625 0  0.1484375 0.03515625 0  0.15625 0.03515625 0  0.1640625 0.03515625 0  0.171875 0.03515625 0  0.1796875 0.03515625 0  0.1875 0.03515625 0  0.1953125 0.03515625 0  0.203125 0.03515625 0  0.2109375 0.03515625 0  0.21875 0.03515625 0  0.2265625 0.03515625 0  0.234375 0.03515625 0  0.2421875 0.03515625 0  0.25 0.03515625 0  0.2578125 0.03515625 0  0.265625 0.03515625 0  0.2734375 0.03515625 0  0.28125 0.03515625 0  0.2890625 0.03515625 0  0.296875 0.03515625 0  0.3046875 0.03515625 0  0.3125 0.03515625 0  0.3203125 0.03515625 0  0.328125 0.03515625 0  0.3359375 0.03515625 0  0.34375 0.03515625 0  0.3515625 0.03515625 0  0.359375 0.03515625 0  0.3671875 0.03515625 0  0.375 0.03515625 0  0.3828125 0.03515625 0  0.390625 0.03515625 0  0.3984375 0.03515625 0  0.40625 0.03515625 0  0.4140625 0.03515625 0  0.421875 0.03515625 0  0.4296875 0.03515625 0  0.4375 0.03515625 0  0.4453125 0.03515625 0  0.453125 0.03515625 0  0.4609375 0.03515625 0  0.46875 0.03515625 0  0.4765625 0.03515625 0  0.484375 0.03515625 0  0.4921875 0.03515625 0  0.5 0.03515625 0  0.5078125 0.03515625 0  0.515625 0.03515625 0  0.5234375 0.03515625 0  0.53125 0.03515625 0  0.5390625 0.03515625 0  0.546875 0.03515625 0  0.5546875 0.03515625 0  0.5625 0.03515625 0  0.5703125 0.03515625 0  0.578125 0.03515625 0  0.5859375 0.03515625 0  0.59375 0.03515625 0  0.6015625 0.03515625 0  0.609375 0.03515625 0  0.6171875 0.03515625 0  0.625 0.03515625 0  0.6328125 0.03515625 0  0.640625 0.03515625 0  0.6484375 0.03515625 0  0.65625 0.03515625 0  0.6640625 0.03515625 0  0.671875 0.03515625 0  0.6796875 0.03515625 0  0.6875 0.03515625 0  0.6953125 0.03515625 0  0.703125 0.03515625 0  0.7109375 0.03515625 0  0.71875 0.03515625 0  0.7265625 0.03515625 0  0.734375 0.03515625 0  0.742
[...]
<PointData  Scalars="f_365"> 
<DataArray  type="Float64"  Name="f_365"  format="ascii">0.0000000000000000e+00  3.7759526189134958e-04  7.5519046994585132e-04  1.1327855703266651e-03  1.5103805091969662e-03  1.8879752327199528e-03  2.2655696870588536e-03  2.6431638183769361e-03  3.0207575728375146e-03  3.3983508966039548e-03  3.7759437358396855e-03  4.1535360367082044e-03  4.5311277453730864e-03  4.9087188079979900e-03  5.2863091707466654e-03  5.6638987797829653e-03  6.0414875812708456e-03  6.4190755213743809e-03  6.7966625462577666e-03  7.1742486020853289e-03  7.5518336350215336e-03  7.9294175912309924e-03  8.3070004168784659e-03  8.6845820581288834e-03  9.0621624611473342e-03  9.4397415720990936e-03  9.8173193371496170e-03  1.0194895702464547e-02  1.0572470614209732e-02  1.0950044018551229e-02  1.1327615861655300e-02  1.1705186089688442e-02  1.2082754648817372e-02  1.2460321485209053e-02  1.2837886545030689e-02  1.3215449774449738e-02  1.3593011119633919e-02  1.3970570526751219e-02  1.4348127941969905e-02  1.4725683311458524e-02  1.5103236581385914e-02  1.5480787697921217e-02  1.5858336607233882e-02  1.6235883255493664e-02  1.6613427588870643e-02  1.6990969553535247e-02  1.7368509095658215e-02  1.7746046161410647e-02  1.8123580696963994e-02  1.8501112648490067e-02  1.8878641962161036e-02  1.9256168584149472e-02  1.9633692460628301e-02  2.0011213537770856e-02  2.0388731761750867e-02  2.0766247078742476e-02  2.1143759434920223e-02  2.1521268776459088e-02  2.1898775049534469e-02  2.2276278200322214e-02  2.2653778174998595e-02  2.3031274919740361e-02  2.3408768380724712e-02  2.3786258504129302e-02  2.4163745236132288e-02  2.4541228522912288e-02  2.4918708310648418e-02  2.5296184545520302e-02  2.5673657173708057e-02  2.6051126141392319e-02  2.6428591394754251e-02  2.6806052879975541e-02  2.7183510543238417e-02  2.7560964330725638e-02  2.7938414188620544e-02  2.8315860063107007e-02  2.8693301900369481e-02  2.9070739646592996e-02  2.9448173247963162e-02  2.9825602650666177e-02  3.0203027800888845e-02  3.0580448644818570e-02  3.0957865128643371e-02  3.1335277198551892e-02  3.1712684800733408e-02  3.2090087881377828e-02  3.2467486386675695e-02  3.2844880262818212e-02  3.3222269455997266e-02  3.3599653912405374e-02  3.3977033578235748e-02  3.4354408399682276e-02  3.4731778322939541e-02  3.5109143294202824e-02  3.5486503259668116e-02  3.5863858165532114e-02  3.6241207957992246e-02  3.6618552583246651e-02  3.6995891987494221e-02  3.7373226116934596e-02  3.7750554917768138e-02  3.8127878336196019e-02  3.8505196318420136e-02  3.8882508810643174e-02  3.9259815759068610e-02  3.9637117109900692e-02  4.0014412809344480e-02  4.0391702803605843e-02  4.0768987038891459e-02  4.1146265461408815e-02  4.1523538017366253e-02  4.1900804652972919e-02  4.2278065314438833e-02  4.2655319947974848e-02  4.3032568499792687e-02  4.3409810916104928e-02  4.3787047143125035e-02  4.4164277127067358e-02  4.4541500814147122e-02  4.4918718150580447e-02  4.5295929082584389e-02  4.5673133556376894e-02  4.6050331518176821e-02  4.6427522914203982e-02  4.6804707690679098e-02  4.7181885793823847e-02  4.7559057169860877e-02  4.7936221765013762e-02  4.8313379525507065e-02  4.8690530397566309e-02  4.9067674327418015e-02  4.9444811261289676e-02  4.9821941145409790e-02  5.0199063926007877e-02  5.0576179549314447e-02  5.0953287961561039e-02  5.1330389108980211e-02  5.1707482937805575e-02  5.2084569394271772e-02  5.2461648424614496e-02  5.2838719975070517e-02  5.3215783991877638e-02  5.3592840421274768e-02  5.3969889209501881e-02  5.4346930302800044e-02  5.4723963647411417e-02  5.5100989189579279e-02  5.5478006875548005e-02  5.5855016651563102e-02  5.6232018463871193e-02  5.6609012258720053e-02  5.6985997982358566e-02  5.7362975581036826e-02  5.7739945001006029e-02  5.8116906188518558e-02  5.8493859089827981e-02  5.8870803651189033e-02  5.9247739818857628e-02  5.9624667539090917e-02  6.0001586758147207e-02  6.0378497422286050e-02  6.0755399477768202e-02  6.1132292870855656e-02  6.1509177547811628e-02  6.1886053454900586e-02  6.2262920538388250e-02  6.2639778744541602e-02  6.3016628019628859e-02  6.3393468309919571e-02  6.3770299561684493e-02  6.4147121721195730e-02  6.4523934734726660e-02  6.4900738548551967e-02  6.5277533108947627e-02  6.5654318362190989e-02  6.6031094254560677e-02  6.6407860732336677e-02  6.6784617741800278e-02  6.7161365229234188e-02  6.7538103140922415e-02  6.7914831423150343e-02  6.8291550022204744e-02  6.8668258884373765e-02  6.9044957955946937e-02  6.9421647183215182e-02  6.9798326512470851e-02  7.0174995890007655e-02  7.0551655262120802e-02  7.0928304575106862e-02  7.1304943775263863e-02  7.1681572808891245e-02  7.2058191622289963e-02  7.2434800161762361e-02  7.2811398373612279e-02  7.3187986204145031e-02  7.3564563599667426e-02  7.3941130506487707e-02  7.4317686870915667e-02  7.4694232639262587e-02  7.5070767757841231e-02  7.5447292172965918e-02  7.5823805830952495e-02  7.6200308678118320e-02  7.6576800660782290e-02  7.6953281725264860e-02  7.7329751817888037e-02  7.7706210884975424e-02  7.8082658872852151e-02  7.8459095727844944e-02  7.8835521396282124e-02  7.9211935824493596e-02  7.9588338958810886e-02  7.9964730745567092e-02  8.0341111131097001e-02  8.0717480061736943e-02  8.1093837483824927e-02  8.1470183343700583e-02  8.1846517587705225e-02  8.2222840162181787e-02  8.2599151013474884e-02  8.2975450087930780e-02  8.3351737331897449e-02  8.3728012691724543e-02  8.4104276113763379e-02  8.4480527544367023e-02  8.4856766929890221e-02  8.5232994216689464e-02  8.5609209351122914e-02  8.5985412279550519e-02  8.6361602948333935e-02  8.6737781303836595e-02  8.7113947292423652e-02  8.7490100860462064e-02  8.7866241954320523e-02  8.8242370520369512e-02  8.8618486504981303e-02  8.8994589854529974e-02  8.9370680515391349e-02  8.9746758433943169e-02  9.0122823556564882e-02  9.0498875829637823e-02  9.0874915199545117e-02  9.1250941612671777e-02  9.1626955015404632e-02  9.2002955354132374e-02  9.2378942575245551e-02  9.2754916625136588e-02  9.3130877450199795e-02  9.3506824996831342e-02  9.3882759211429329e-02  9.4258680040393714e-02  9.4634587430126399e-02  9.5010481327031202e-02  9.5386361677513853e-02  9.5762228427981988e-02  9.6138081524845223e-02  9.6513920914515106e-02  9.6889746543405139e-02  9.7265558357930784e-02  9.7641356304509458e-02  9.8017140329560604e-02  9.8392910379505580e-02  9.8768666400767799e-02  9.9144408339772630e-02  9.9520136142947496e-02  9.9895849756721791e-02  1.0027154912752695e-01  1.0064723420179643e-01  1.0102290492596576e-01  1.0139856124647245e-01  1.0177420310975614e-01  1.0214983046225848e-01  1.0252544325042319e-01  1.0290104142069610e-01  1.0327662491952509e-01  1.0365219369336016e-01  1.0402774768865337e-01  1.0440328685185894e-01  1.0477881112943317e-01  1.0515432046783448e-01  1.0552981481352343e-01  1.0590529411296273e-01  1.0628075831261721e-01  1.0665620735895387e-01  1.0703164119844187e-01  1.0740705977755252e-01  1.0778246304275933e-01  1.0815785094053799e-01  1.0853322341736636e-01  1.0890858041972451e-01  1.0928392189409473e-01  1.0965924778696153e-01  1.1003455804481158e-01  1.1040985261413386e-01  1.1078513144141955e-01  1.1116039447316205e-01  1.1153564165585705e-01  1.1191087293600251e-01  1.1228608826009860e-01  1.1266128757464781e-01  1.1303647082615492e-01  1.1341163796112694e-01  1.1378678892607327e-01  1.1416192366750554e-01  1.1453704213193772e-01  1.1491214426588611e-01  1.1528723001586931e-01  1.1566229932840828e-01  1.1603735215002633e-01  1.1641238842724910e-01  1.1678740810660460e-01  1.1716241113462320e-01  1.1753739745783764e-01  1.1791236702278306e-01  1.1828731977599698e-01  1.1866225566401931e-01  1.1903717463339239e-01  1.1941207663066093e-01  1.1978696160237209e-01  1.2016182949507546e-01  1.2053668025532305e-01  1.2091151382966930e-01  1.2128633016467115e-01  1.2166112920688794e-01  1.2203591090288153e-01  1.2241067519921620e-01  1.2278542204245874e-01  1.2316015137917842e-01  1.2353486315594703e-01  1.2390955731933884e-01  1.2428423381593062e-01  1.2465889259230169e-01  1.2503353359503389e-01  1.2540815677071152e-01  1.2578276206592159e-01  1.2615734942725348e-01  1.2653191880129924e-01  1.2690647013465342e-01  1.2728100337391321e-01  1.2765551846567827e-01  1.2803001535655101e-01  1.2840449399313625e-01  1.2877895432204159e-01  1.2915339628987707e-01  1.2952781984325551e-01  1.2990222492879222e-01  1.3027661149310524e-01  1.3065097948281520e-01  1.3102532884454537e-01  1.3139965952492177e-01  1.3177397147057290e-01  1.3214826462813015e-01  1.3252253894422739e-01  1.3289679436550134e-01  1.3327103083859126e-01  1.3364524831013930e-01  1.3401944672679009e-01  1.3439362603519120e-01  1.3476778618199275e-01  1.3514192711384770e-01  1.3551604877741175e-01  1.3589015111934322e-01  1.3626423408630337e-01  1.3663829762495605e-01  1.3701234168196802e-01  1.3738636620400874e-01  1.3776037113775044e-01  1.3813435642986821e-01  1.3850832202703989e-01  1.3888226787594615e-01  1.3925619392327046e-01  1.3963010011569912e-01  1.4000398639992129e-01  1.4037785272262893e-01  1.4075169903051682e-01  1.4112552527028269e-01  1.4149933138862703e-01  1.4187311733225325e-01  1.4224688304786764e-01  1.4262062848217935e-01  1.4299435358190044e-01  1.4336805829374588e-01  1.4374174256443348e-01  1.4411540634068407e-01  1.4448904956922132e-01  1.4486267219677182e-01  1.4523627417006521e-01  1.4560985543583393e-01  1.4598341594081352e-01  1.4635695563174231e-01  1.4673047445536175e-01  1.4710397235841616e-01  1.4747744928765291e-01  1.4785090518982233e-01  1.4822434001167778e-01  1.4859775369997558e-01  1.4897114620147509e-01  1.4934451746293861e-01  1.4971786743113166e-01  1.5009119605282265e-01  1.5046450327478297e-01  1.5083778904378731e-01  1.5121105330661311e-01  1.5158429601004111e-01  1.5195751710085503e-01  1.5233071652584168e-01  1.5270389423179095e-01  1.5307705016549586e-01  1.5345018427375248e-01  1.5382329650336010e-01  1.5419638680112097e-01  1.5456945511384057e-01  1.5494250138832755e-01  1.5531552557139355e-01  1.5568852760985358e-01  1.5606150745052561e-01  1.5643446504023087e-01  1.5680740032579371e-01  1.5718031325404175e-01  1.5755320377180568e-01  1.5792607182591953e-01  1.5829891736322035e-01  1.5867174033054857e-01  1.5904454067474774e-01  1.5941731834266465e-01  1.5979007328114939e-01  1.6016280543705513e-01  1.6053551475723854e-01  1.6090820118855928e-01  1.6128086467788047e-01  1.6165350517206836e-01  1.6202612261799262e-01  1.6239871696252606e-01  1.6277128815254491e-01  1.6314383613492858e-01  1.6351636085655993e-01  1.6388886226432500e-01  1.6426134030511322e-01  1.6463379492581739e-01  1.6500622607333357e-01  1.6537863369456124e-01  1.6575101773640313e-01  1.6612337814576547e-01  1.6649571486955772e-01  1.6686802785469285e-01  1.6724031704808712e-01  1.6761258239666019e-01  1.6798482384733515e-01  1.6835704134703852e-01  1.6872923484270022e-01  1.6910140428125348e-01  1.6947354960963518e-01  1.6984567077478541e-01  1.7021776772364786e-01  1.7058984040316960e-01  1.7096188876030122e-01  1.7133391274199669e-01  1.7170591229521356e-01  1.7207788736691274e-01  1.7244983790405877e-01  1.7282176385361955e-01  1.7319366516256660e-01  1.7356554177787489e-01  1.7393739364652291e-01  1.7430922071549276e-01  1.7468102293176993e-01  1.7505280024234360e-01  1.7542455259420636e-01  1.7579627993435451e-01  1.7616798220978777e-01  1.7653965936750957e-01  1.7691131135452678e-01  1.7728293811785004e-01  1.7765453960449337e-01  1.7802611576147456e-01  1.7839766653581496e-01  1.7876919187453952e-01  1.7914069172467684e-01  1.7951216603325909e-01  1.7988361474732226e-01  1.8025503781390573e-01  1.8062643518005275e-01  1.8099780679281013e-01  1.8136915259922839e-01  1.8174047254636172e-01  1.8211176658126801e-01  1.8248303465100876e-01  1.8285427670264931e-01  1.8322549268325866e-01  1.8359668253990943e-01  1.8396784621967813e-01  1.8433898366964482e-01  1.8471009483689349e-01  1.8508117966851170e-01  1.8545223811159092e-01  1.8582327011322625e-01  1.8619427562051669e-01  1.8656525458056486e-01  1.8693620694047730e-01  1.8730713264736429e-01  1.8767803164833993e-01  1.8804890389052209e-01  1.8841974932103248e-01  1.8879056788699666e-01  1.8916135953554397e-01  1.8953212421380761e-01  1.8990286186892461e-01  1.9027357244803589e-01  1.9064425589828618e-01  1.9101491216682415e-01  1.9138554120080226e-01  1.9175614294737692e-01  1.9212671735370837e-01  1.9249726436696080e-01  1.9286778393430234e-01  1.9323827600290489e-01  1.9360874051994445e-01  1.9397917743260082e-01  1.9434958668805777e-01  1.9471996823350302e-01  1.9509032201612825e-01  1.9546064798312909e-01  1.9583094608170515e-01  1.9620121625905995e-01  1.9657145846240112e-01  1.9694167263894011e-01  1.9731185873589246e-01  1.9768201670047780e-01  1.9805214647991959e-01  1.9842224802144545e-01  1.9879232127228694e-01  1.9916236617967970e-01  1.9953238269086337e-01  1.9990237075308173e-01  2.0027233031358246e-01  2.0064226131961752e-01  2.0101216371844269e-01  2.0138203745731806e-01  2.0175188248350762e-01  2.0212169874427957e-01  2.0249148618690621e-01  2.0286124475866388e-01  2.0323097440683310e-01  2.0360067507869845e-01  2.0397034672154871e-01  2.0433998928267674e-01  2.0470960270937960e-01  2.0507918694895846e-01  2.0544874194871870e-01  2.0581826765596981e-01  2.0618776401802549e-01  2.0655723098220358e-01  2.0692666849582622e-01  2.0729607650621965e-01  2.0766545496071434e-01  2.0803480380664499e-01  2.0840412299135047e-01  2.0877341246217401e-01  2.0914267216646287e-01  2.0951190205156878e-01  2.0988110206484756e-01  2.1025027215365932e-01  2.1061941226536851e-01  2.1098852234734378e-01  2.1135760234695805e-01  2.1172665221158860e-01  2.1209567188861697e-01  2.1246466132542899e-01  2.1283362046941484e-01  2.1320254926796894e-01  2.1357144766849018e-01  2.1394031561838159e-01  2.1430915306505074e-01  2.1467795995590938e-01  2.1504673623837375e-01  2.1541548185986434e-01  2.1578419676780614e-01  2.1615288090962836e-01  2.1652153423276474e-01  2.1689015668465339e-01  2.1725874821273669e-01  2.1762730876446165e-01  2.1799583828727945e-01  2.1836433672864591e-01  2.1873280403602113e-01  2.1910124015686980e-01  2.1946964503866084e-01  2.1983801862886784e-01  2.2020636087496873e-01  2.2057467172444595e-01  2.2094295112478640e-01  2.2131119902348145e-01  2.2167941536802707e-01  2.2204760010592350e-01  2.2241575318467577e-01  2.2278387455179319e-01  2.2315196415478972e-01  2.2352002194118376e-01  2.2388804785849839e-01  2.2425604185426107e-01  2.2462400387600390e-01  2.2499193387126354e-01  2.2535983178758115e-01  2.2572769757250258e-01  2.2609553117357814e-01  2.2646333253836284e-01  2.2683110161441614e-01  2.2719883834930230e-01  2.2756654269058998e-01  2.2793421458585264e-01  2.2830185398266822e-01  2.2866946082861941e-01  2.2903703507129347e-01  2.2940457665828237e-01  2.2977208553718265e-01  2.3013956165559557e-01  2.3050700496112708e-01  2.3087441540138773e-01  2.3124179292399286e-01  2.3160913747656239e-01  2.3197644900672107e-01  2.3234372746209822e-01  2.3271097279032801e-01  2.3307818493904919e-01  2.3344536385590539e-01  2.3381250948854487e-01  2.3417962178462068e-01  2.3454670069179059e-01  2.3491374615771718e-01  2.3528075813006777e-01  2.3564773655651447e-01  2.3601468138473414e-01  2.3638159256240845e-01  2.3674847003722391e-01  2.3711531375687173e-01  2.3748212366904806e-01  2.3784889972145373e-01  2.3821564186179459e-01  2.3858235003778111e-01  2.3894902419712874e-01  2.3931566428755774e-01  2.3968227025679323e-01  2.4004884205256521e-01  2.4041537962260853e-01  2.4078188291466293e-01  2.4114835187647302e-01  2.4151478645578833e-01  2.4188118660036326e-01  2.4224755225795719e-01  2.4261388337633433e-01  2.4298017990326387e-01  2.4334644178651990e-01  2.4371266897388150e-01  2.4407886141313262e-01  2.4444501905206220e-01  2.4481114183846420e-01  2.4517722972013745e-01  2.4554328264488587e-01  2.4590930056051818e-01  2.4627528341484833e-01  2.4664123115569506e-01  2.4700714373088226e-01  2.4737302108823875e-01  2.4773886317559840e-01  2.4810466994080016e-01  2.4847044133168789e-01  2.4883617729611057e-01  2.4920187778192232e-01  2.4956754273698215e-01  2.4993317210915422e-01  2.5029876584630772e-01  2.5066432389631710e-01  2.5102984620706165e-01  2.5139533272642584e-01  2.5176078340229924e-01  2.5212619818257670e-01  2.5249157701515795e-01  2.5285691984794795e-01  2.5322222662885668e-01  2.5358749730579955e-01  2.5395273182669686e-01  2.5431793013947401e-01  2.5468309219206187e-01  2.5504821793239624e-01  2.5541330730841810e-01  2.5577836026807360e-01  2.5614337675931437e-01  2.5650835673009686e-01  2.5687330012838294e-01  2.5723820690213961e-01  2.5760307699933915e-01  2.5796791036795902e-01  2.5833270695598193e-01  2.5869746671139593e-01  2.5906218958219418e-01  2.5942687551637511e-01  2.5979152446194248e-01  2.6015613636690538e-01  2.6052071117927805e-01  2.6088524884708003e-01  2.6124974931833622e-01  2.6161421254107692e-01  2.6197863846333747e-01  2.6234302703315876e-01  2.6270737819858692e-01  2.6307169190767338e-01  2.6343596810847503e-01  2.6380020674905397e-01  2.6416440777747774e-01  2.6452857114181921e-01  2.6489269679015659e-01  2.6525678467057356e-01  2.6562083473115916e-01  2.6598484692000768e-01  2.6634882118521908e-01  2.6671275747489837e-01  2.6707665573715633e-01  2.6744051592010898e-01  2.6780433797187769e-01  2.6816812184058952e-01  2.6853186747437674e-01  2.6889557482137716e-01  2.6925924382973404e-01  2.6962287444759619e-01  2.6998646662311776e-01  2.7035002030445843e-01  2.7071353543978333e-01  2.7107701197726319e-01  2.7144044986507426e-01  2.7180384905139809e-01  2.7216720948442186e-01  2.7253053111233849e-01  2.7289381388334605e-01  2.7325705774564840e-01  2.7362026264745498e-01  2.7398342853698054e-01  2.7434655536244568e-01  2.7470964307207635e-01  2.7507269161410419e-01  2.7543570093676645e-01  2.7579867098830579e-01  2.7616160171697068e-01  2.7652449307101518e-01  2.7688734499869877e-01  2.7725015744828674e-01  2.7761293036804996e-01  2.7797566370626492e-01  2.7833835741121377e-01  2.7870101143118420e-01  2.7906362571446980e-01  2.7942620020936965e-01  2.7978873486418848e-01  2.8015122962723671e-01  2.8051368444683067e-01  2.8087609927129209e-01  2.8123847404894853e-01  2.8160080872813315e-01  2.8196310325718515e-01  2.8232535758444910e-01  2.8268757165827541e-01  2.8304974542702038e-01  2.8341187883904578e-01  2.8377397184271941e-01  2.8413602438641455e-01  2.8449803641851062e-01  2.8486000788739241e-01  2.8522193874145080e-01  2.8558382892908230e-01  2.8594567839868923e-01  2.8630748709867981e-01  2.8666925497746798e-01  2.8703098198347354e-01  2.8739266806512215e-01  2.8775431317084521e-01  2.8811591724907998e-01  2.8847748024826969e-01  2.8883900211686331e-01  2.8920048280331573e-01  2.8956192225608762e-01  2.8992332042364566e-01  2.9028467725446233e-01  2.9064599269701602e-01  2.9100726669979110e-01  2.9136849921127772e-01  2.9172969017997197e-01  2.9209083955437593e-01  2.9245194728299762e-01  2.9281301331435089e-01  2.9317403759695565e-01  2.9353502007933763e-01  2.9389596071002871e-01  2.9425685943756658e-01  2.9461771621049498e-01  2.9497853097736348e-01  2.9533930368672795e-01  2.9570003428714997e-01  2.9606072272719719e-01  2.9642136895544341e-01  2.9678197292046826e-01  2.9714253457085754e-01  2.9750305385520293e-01  2.9786353072210237e-01  2.9822396512015964e-01  2.9858435699798475e-01  2.9894470630419345e-01  2.9930501298740808e-01  2.9966527699625661e-01  3.0002549827937319e-01  3.0038567678539829e-01  3.0074581246297821e-01  3.0110590526076547e-01  3.0146595512741869e-01  3.0182596201160267e-01  3.0218592586198817e-01  3.0254584662725231e-01  3.0290572425607809e-01  3.0326555869715499e-01  3.0362534989917839e-01  3.0398509781084992e-01  3.0434480238087730e-01  3.0470446355797465e-01  3.0506408129086199e-01  3.0542365552826573e-01  3.0578318621891848e-01  3.0614267331155892e-01  3.0650211675493211e-01  3.0686151649778914e-01  3.0722087248888758e-01  3.0758018467699105e-01  3.079394530108695