<?xml version="1.0"?>
<VTKFile type="UnstructuredGrid"  version="0.1"  >
<UnstructuredGrid>
<Piece  NumberOfPoints="778" NumberOfCells="1401">
<Points>
<DataArray  type="Float64"  NumberOfComponents="3"  format="ascii">1 -1 0  6 -1 0  6 1 0  1 1 0  1 6 0  -1 6 0  -1 1 0  -6 1 0  -6 -1 0  -1 -1 0  -1 -6 0  1 -6 0  1 3.5 0  -1 3.5 0  -1 -3.5 0  1 -3.5 0  3.5 -1 0  3.5 1 0  -3.5 -1 0  -3.5 1 0  -1 -2.25 0  1 -2.25 0  2.25 -1 0  2.25 1 0  -1 2.25 0  1 2.25 0  -1 4.75 0  1 4.75 0  -4.75 -1 0  -4.75 1 0  -2.25 1 0  -2.25 -1 0  1 -4.75 0  -1 -4.75 0  4.75 1 0  4.75 -1 0  0 0 0  -2.875 0 0  -1.625 0 0  -4.125 0 0  -6 0 0  0 2.875 0  2.875 0 0  0 6 0  1.625 0 0  0 -2.875 0  0 -1.625 0  0 1.625 0  0 4.125 0  0 -6 0  0 -4.125 0  4.125 0 0  6 0 0  -0.109375 5.0625 0  -5.0625 -0.109375 0  -0.109375 -5.0625 0  5.0625 0.109375 0  0.8125 -0.1875 0  -0.1875 -0.8125 0  -0.8125 0.1875 0  -0.1875 0.8125 0  1 5.375 0  -5.375 1 0  1 -5.375 0  5.375 -1 0  0.53515625 0.46484375 0  -5.375 -1 0  -1 5.375 0  -1 -5.375 0  -0.5 -6 0  5.375 1 0  6 0.5 0  3.5 0.3046875 0  3.43125 -0.34765625 0  2.875 -1 0  4.125 1 0  0.3046875 3.5 0  -0.34765625 3.56875 0  -1 4.125 0  1 4.125 0  -0.3046875 2.25 0  0.34765625 2.18125 0  1 1.625 0  -1 -1.625 0  -0.3046875 -3.5 0  0.34765625 -3.56875 0  1 -4.125 0  0.3046875 -2.25 0  -0.34765625 -2.18125 0  -1 -4.125 0  -1 -2.875 0  1 -2.875 0  1 -1.625 0  1.625 -1 0  1.625 1 0  2.25 0.3046875 0  2.18125 -0.34765625 0  4.125 -1 0  2.875 1 0  1 2.875 0  -1 1.625 0  -1 2.875 0  -4.125 -1 0  -2.25 0.3046875 0  -2.31875 -0.34765625 0  -2.875 -1 0  -1.625 1 0  -4.125 1 0  -3.5 0.3046875 0  -3.56875 -0.34765625 0  -1.625 -1 0  -2.875 1 0  0.380626321794301 1.06853329530276 0  -1.110819327731092 -0.3739495798319328 0  0.3739495798319328 -1.110819327731092 0  1.151210293219304 0.3991939332620648 0  -0.5 -4.4375 0  0.5 -4.4375 0  5.481553398058253 -0.3712833737864077 0  0.5 4.4375 0  0.5 6 0  -0.522503783594538 -0.3265648647465863 0  -1.3125 0.5 0  -0.5 6 0  0.3265648647465863 -0.522503783594538 0  4.4375 0.5 0  4.4375 -0.5 0  0.5 -6 0  -6 -0.5 0  -5.481553398058253 0.3712833737864077 0  -4.55 -0.4296875 0  -4.4375 0.5 0  -0.5 4.4375 0  0.4792930825242718 5.026881067961165 0  0.4792930825242718 -5.026881067961165 0  -0.5 1.3125 0  1.3125 -0.5 0  -0.5 -1.3125 0  0.25 5.518539952962044 0  0.2125133872612723 -5.500076563152851 0  4.969341874373811 -0.5152550785163683 0  -4.969341874373811 0.5152550785163683 0  3.927189744345589 -0.4712876597840069 0  -5.554036458333333 -0.25 0  5.554036458333333 0.25 0  -0.4690710616438356 -5.462756849315069 0  -0.4690710616438356 5.462756849315069 0  -6 0.5 0  -1.59556436210848 -0.5 0  -3.058421751829955 -0.5 0  -0.5 2.731982421875 0  0.5 2.691578248170045 0  2.691578248170045 -0.5 0  1.641211254104555 0.5 0  0.5 -1.768017578125 0  0.5 -3.058421751829955 0  0.5 1.699267578125 0  3.018017578125 0.5 0  -0.5 -3.018017578125 0  -2.731982421875 0.5 0  6 -0.5 0  -4.050017120925308 -0.5006099332648871 0  -3.940668202764977 0.5371363767281105 0  3.940668202764977 0.5371363767281105 0  0.4517449476047904 3.958458083832335 0  -0.4517449476047904 -3.958458083832335 0  -1.809331797235023 0.5371363767281105 0  -0.4517449476047904 1.791541916167665 0  -0.0546875 4.59375 0  -5.006445312499999 -0.58984375 0  4.605643203883496 -0.04725424757281554 0  4.90625 0.5546875 0  -0.5546875 4.90625 0  0.04725424757281554 -4.605643203883496 0  -0.586116118210531 -4.995821561900013 0  -4.603710222472543 0.04846236095466061 0  -3.1875 0.65234375 0  0.6163907621110913 3.147502300973589 0  2.5625 0.65234375 0  0.6163907621110913 -2.602497699026411 0  -0.637456713551384 3.189259902731882 0  -0.637456713551384 -2.560740097268118 0  -0.34765625 0.34765625 0  -0.639453125 0.708203125 0  0.089630126953125 0.437286376953125 0  -0.4238281249999999 -1.746875 0  1.746875 -0.4238281249999999 0  -0.4238281249999999 4.003125 0  0.4238281249999999 -4.003125 0  -2.5625 -1 0  3.1875 -1 0  -0.09375 -1.21875 0  1.21875 -0.09375 0  0.4020305405760241 -0.1120343241705621 0  -0.6280191027904287 -0.7577505545748082 0  0.90625 -0.59375 0  -1.205500904741459 0.03633725387965409 0  -0.02129048848213058 1.202028574265107 0  -0.1120343241705621 -0.4020305405760241 0  1 1.3125 0  -2.003587563743074 -0.6442361556699288 0  0.6640077663259718 -1.395873598614549 0  5.6875 -1 0  0.6308138580859101 -5.592151086468728 0  -5.6875 -1 0  0.6568032075915271 5.612942566073222 0  5.616530031741774 0.6612875396772174 0  -5.6875 1 0  1.9375 1 0  -1.3125 -1 0  0.1524679547155687 -3.232579139388032 0  0.1524679547155687 2.517420860611968 0  -3.232579139388032 -0.1524679547155687 0  -1.932320553757026 -0.252759244693845 0  2.517420860611968 -0.1524679547155687 0  -0.04776045819569434 -2.464949198504599 0  -0.2420369079104247 3.187693796852321 0  3.751304711039982 -0.1203080877045035 0  -5.397601941771943 -0.609026059866711 0  1.3125 1 0  1.9375 -1 0  -0.6946315101963667 -2.018229242739021 0  -0.6946315101963667 3.731770757260979 0  1 -3.8125 0  2.014364435550335 0.6166648446293641 0  -1 5.6875 0  -1 -5.6875 0  -2.653476149871182 -0.5942957192996303 0  3.096523850128818 -0.5942957192996303 0  1 1.9375 0  -3.8125 -1 0  0.586975531244212 -0.7975955463807081 0  -0.2946248980953088 -4.743710873809568 0  2.625453376770019 0.2814788818359375 0  -3.124546623229981 0.2814788818359375 0  -0.1204856417894853 5.631800603217465 0  5.253862011026742 0.6581468962876398 0  -0.65234375 2.108701557941197 0  0.65234375 3.641298442058803 0  -0.65234375 -3.641298442058803 0  -0.25 -5.744880569758637 0  -4.4375 -1 0  -0.3166212631734941 -2.713595940002554 0  0.6591479224207506 0.1324305912687024 0  0.8660781906552419 0.6468634238104103 0  -0.9887189158197679 0.6452930723873549 0  0.3149351927204296 -1.460971774996065 0  -0.3572852727880474 -0.009629022788047503 0  2.09375 -0.6866724363772454 0  0.6866724363772454 -3.65625 0  0.6866724363772454 2.09375 0  -3.65625 -0.6866724363772454 0  -3.5371337890625 0.65234375 0  -0.1389584113023952 1.944025352615082 0  -2.151744288472698 0.65234375 0  -0.1389584113023951 -3.805974647384918 0  0.1389584113023951 3.805974647384918 0  -2.578772109813904 0.1857224367977529 0  3.171227890186096 0.1857224367977529 0  3.360315647536819 0.65234375 0  0.1857224367977528 -1.921227890186096 0  0.65234375 -2.110315647536819 0  1.894016528727564 0.2415406141485869 0  -3.738232421875 0 0  0.2516875549238616 3.139069895099618 0  -1.913724396854074 0.2011142179916434 0  0.1669456568161915 0.7843410671359501 0  -2.5625 1 0  -1 -3.1875 0  -1 2.5625 0  0.1736601499778735 4.857955663330752 0  -0.1893536587212888 2.577300639071919 0  -0.1893536587212888 -3.172699360928081 0  3.852271904453858 0.206603749322895 0  -3.8125 1 0  -0.1250095034621793 -5.421707592768541 0  3.8125 -1 0  3.617304217264373 -0.6578427703661498 0  0.2630176195580202 -2.636558318495885 0  0.2674330357770522 1.399517071108871 0  0.631726413079416 1.339254523727593 0  4.700571879807737 0.2813704945051134 0  0.7143844363649634 -3.319538455208831 0  2.430461544791169 -0.7143844363649634 0  0.7143844363649634 2.430461544791169 0  -3.319538455208831 -0.7143844363649634 0  5.687045771608623 -0.6520598572553891 0  -5.687045771608623 0.6520598572553891 0  -1.15625 -0.7048248829733235 0  3.438284572973296 -0.01860298867862281 0  -0.03021088078697859 3.451572359862192 0  2.216682837011589 -0.02159585961918548 0  -2.191580885932936 -0.03126387444658879 0  0.1857410764408683 1.895679405349457 0  3.103473238297955 -0.253270943723272 0  -2.646526761702045 -0.253270943723272 0  -2.333137350671861 -0.6791984914172315 0  -1 5.0625 0  -0.6971235589909319 5.213002544375844 0  0.01618705363819947 2.225929180591695 0  0.01618705363819947 -3.524070819408305 0  0.5690054882403073 0.7951310720450595 0  -0.5764940424412852 -3.329579265180942 0  -0.5764940424412852 2.420420734819058 0  3.8125 1 0  -5.372163860234628 0.04365139563106807 0  5.164108319316826 -0.225040894204947 0  -5.361952437854323 0.6744012088984681 0  -5.0625 1 0  5.286835586913878 -0.6616705837083201 0  -5.692815197359722 0.1186699900166531 0  5.663425996156958 -0.07763197815533956 0  -0.9219866027132193 -0.1143045829323572 0  -1.394333629759332 -0.2233077430199216 0  0.09322478991596644 -0.9616596638655462 0  5.0625 -1 0  -0.14412109375 -1.92169189453125 0  -4.28125 -0.7212148987671345 0  0.2649796277366407 0.1735162902120744 0  -4.907855692236596 0.1868230509619793 0  -1.9375 1 0  1 5.0625 0  0.6915124486819284 -5.272938212550202 0  0.683483242673902 5.284948082526911 0  2.5625 -1 0  -1 -3.8125 0  -1 1.9375 0  5.0625 1 0  -1 -1.9375 0  1 5.6875 0  1 -5.6875 0  -1.9375 -1 0  -1 -2.5625 0  -1 3.1875 0  1 -3.1875 0  1 -2.5625 0  1 2.5625 0  1 3.1875 0  -5.0625 -1 0  -1 -1.3125 0  1.3125 -1 0  -1 1.3125 0  -1 3.8125 0  -1 4.4375 0  -4.4375 1 0  4.4375 -1 0  4.4375 1 0  -1.3125 1 0  1 4.4375 0  1 -4.4375 0  -1 -5.0625 0  -1 -4.4375 0  -3.1875 1 0  2.5625 1 0  1 -1.9375 0  1 -1.3125 0  5.6875 1 0  1 3.8125 0  3.1875 1 0  -3.1875 -1 0  1 -5.0625 0  1.35138038998199 0.6675097549271188 0  -0.465625 0.986328125 0  1.435958105992309 0.2563920171199723 0  1.915914614192913 -0.145782394639918 0  -0.8764440609469509 -0.5746869313612541 0  5.355194559946098 0.01566259380337612 0  -5.69333042954964 -0.5242868300459975 0  1.78125 -0.7320750794491524 0  0.7320750794491525 -3.96875 0  -0.3959075548864684 5.166422468926435 0  -4.770522389068053 -0.2123670725088856 0  -4.714160156249999 -0.69234375 0  -4.273484403713342 -0.278160994327167 0  0.9642590244517505 0.08196089404241463 0  0.3500261717645397 -4.727285205957206 0  0.6740868006020392 -4.765147848348443 0  0.6797550207247084 -1.089747806381148 0  -5.186479934354063 0.3046329157552757 0  -5.263288238215326 -0.3369092276308425 0  -2.433484016245305 0.5442571297016638 0  0.1707808983307866 -3.82363304980935 0  -0.1554012991031027 3.867535742674252 0  4.855508096805579 -0.2283975605264581 0  3.644517238097614 0.5646428152488787 0  0.05699603874439441 -0.6452791208413911 0  -0.3550018917972689 -0.5695324323732931 0  0.6
[...]
<PointData  Scalars="u"> 
<DataArray  type="Float64"  Name="u"  format="ascii">-4.3604731986921208e-01  0.0000000000000000e+00  0.0000000000000000e+00  -4.3198417073787493e-01  -8.6320961894982651e-01  -8.6320961894982651e-01  -4.3256294425468217e-01  0.0000000000000000e+00  0.0000000000000000e+00  -4.3240148194047850e-01  -8.6320961894982651e-01  -8.6320961894982651e-01  -6.5990034654200302e-01  -6.6053578972205795e-01  -6.5982343233907448e-01  -6.6025775508274920e-01  -2.0311675136337973e-01  -2.0379778762044115e-01  -2.0305119247966857e-01  -2.0382227752030008e-01  -5.5866174453907225e-01  -5.5945221138972057e-01  -3.0447352994047727e-01  -3.0449315073058536e-01  -5.5938221827872159e-01  -5.5905490690568982e-01  -7.6113577158231482e-01  -7.6170519580711760e-01  -1.0179829476930212e-01  -1.0159415189302765e-01  -3.0492252387071650e-01  -3.0492256470399920e-01  -7.6218451080868832e-01  -7.6187535492752556e-01  -1.0236673049556740e-01  -1.0145235512262045e-01  -4.3037892599760247e-01  -2.5374964602127537e-01  -3.5422382540302821e-01  -1.5233380209125952e-01  0.0000000000000000e+00  -6.0968267004091992e-01  -2.5366908081209766e-01  -8.6320961894982651e-01  -3.5395200493002377e-01  -6.0968713218760318e-01  -5.0908702272787232e-01  -5.0907930715311922e-01  -7.1108187652759292e-01  -8.6320961894982651e-01  -7.1106202648901295e-01  -1.5222716793107091e-01  0.0000000000000000e+00  -7.8713474375045833e-01  -7.6215856805352908e-02  -7.8716361867037987e-01  -7.6121823424035714e-02  -4.0992745729135310e-01  -4.5179948915426554e-01  -4.1009394975603380e-01  -4.5178591830898712e-01  -8.1247187918133679e-01  -5.0485821058160449e-02  -8.1219767736010873e-01  -5.0359462780898340e-02  -4.2829324315151729e-01  -5.1789976524275333e-02  -8.1275738569225597e-01  -8.1241664688470228e-01  -8.6320961894982651e-01  -5.0559037610471529e-02  0.0000000000000000e+00  -2.0306769676181191e-01  -2.0857215223683259e-01  -2.5385783857670058e-01  -1.5199132772695945e-01  -6.6038140831689851e-01  -6.6596530474236093e-01  -7.1101412764128646e-01  -7.1114649046205392e-01  -5.5900686516677933e-01  -5.5342476715446287e-01  -5.0769233888717880e-01  -5.0723361264005740e-01  -6.6034062032851171e-01  -6.6594545365715507e-01  -7.1102338960879874e-01  -5.5902391298102794e-01  -5.5341687603934575e-01  -7.1057643070444854e-01  -6.0996656815201178e-01  -6.1018593299369084e-01  -5.0758808090809493e-01  -3.5639907046945574e-01  -3.5611562306889866e-01  -3.0429796704124890e-01  -3.0985385235293383e-01  -1.5250199616049157e-01  -2.5352633658595203e-01  -6.0918739607585148e-01  -5.0752892356205059e-01  -6.0930120218604489e-01  -1.5255094852863113e-01  -3.0450842297963859e-01  -2.9891522621174893e-01  -2.5362515630817645e-01  -3.5680804747663997e-01  -1.5264483044217286e-01  -2.0309935846949873e-01  -1.9747776954222762e-01  -3.5635860276429399e-01  -2.5366731759416300e-01  -4.6523353940646966e-01  -3.9422779252729517e-01  -4.6853359810492867e-01  -3.9167858155212787e-01  -7.3645493156689756e-01  -7.3640547806771106e-01  -4.2161143192907313e-02  -7.3642721662203448e-01  -8.6320961894982651e-01  -4.2509665907633681e-01  -3.8079590959806747e-01  -8.6320961894982651e-01  -4.3623587668738406e-01  -1.2688559659377441e-01  -1.2684556201641534e-01  -8.6320961894982651e-01  0.0000000000000000e+00  -4.2158051124564541e-02  -1.1787914888425584e-01  -1.2698863123213819e-01  -7.3634755058051626e-01  -7.8420494067761137e-01  -7.8426013481548718e-01  -4.8269865493819575e-01  -3.8036371176249156e-01  -4.8245419425173947e-01  -8.2414803355997379e-01  -8.2265849170536121e-01  -8.3771684672119984e-02  -8.3724355497259456e-02  -1.6828623660697761e-01  -3.6283493845595552e-02  -3.6194806556559114e-02  -8.1959274552455319e-01  -8.1959859752266129e-01  0.0000000000000000e+00  -3.5789197120697147e-01  -2.3886272073402073e-01  -5.9811059041980064e-01  -5.9478613993965768e-01  -2.6855240275759712e-01  -3.5381444346294699e-01  -5.1972255886994678e-01  -6.2458207399705812e-01  -5.1414533591867806e-01  -2.4210191546687149e-01  -6.2124311858333880e-01  -2.6530478897341192e-01  0.0000000000000000e+00  -1.5842353835028861e-01  -1.6743506882653539e-01  -1.6734131305060326e-01  -6.9763381370327837e-01  -6.9752062444160989e-01  -3.4043736960562465e-01  -5.2167749675504838e-01  -7.4909078610533386e-01  -8.0897127948970970e-02  -1.1322460147297496e-01  -8.8823190028858273e-02  -7.7445376602440008e-01  -7.5007627301725377e-01  -7.8177761699598070e-01  -1.1346103015225942e-01  -2.2833812482253990e-01  -6.3183495721414951e-01  -2.7905665104886462e-01  -5.8758535929558486e-01  -6.3510789205751150e-01  -5.8426243042939696e-01  -4.3072653277775702e-01  -4.3452303175321766e-01  -4.3668140350696649e-01  -5.1812803081716208e-01  -3.4504440030678374e-01  -7.0121911022376848e-01  -7.0120021316393422e-01  -2.7871793003522977e-01  -2.2847511629298292e-01  -4.7834689236294659e-01  -3.8414971619292904e-01  -4.2543532109553572e-01  -4.3710784617185755e-01  -4.1384054070961662e-01  -3.8513985044382437e-01  -4.7719583126416859e-01  -4.3554441133766775e-01  -4.8243100677365541e-01  -3.2472168903170778e-01  -4.8806549607962335e-01  -2.5836572605085591e-02  -8.3015270907649841e-01  -2.4896724059349680e-02  -8.3182966466042185e-01  -3.1100219833929015e-02  -2.6273077042648304e-02  -3.2985499859828410e-01  -3.8266378140111468e-01  -6.3868078134689954e-01  -5.8069433438286144e-01  -2.2475128521203749e-01  -3.3011324817036969e-01  -2.8262535833123648e-01  -5.7646487100702914e-01  -6.3505445967062146e-01  -1.8256240083047273e-01  -4.9058124268103007e-02  -3.8294029620238018e-01  -3.3021992072100170e-01  -5.3991562759767076e-01  -6.7927440104587833e-01  -6.8593869884383096e-01  -3.2365396526277851e-01  -8.3732089831242429e-01  -8.3731809147199465e-01  -2.7179984022162368e-01  -2.3572352902625460e-01  -5.3304953354906237e-01  -1.7746352503130297e-01  -4.4136433790882595e-01  -7.6129586536447713e-01  -2.7391536770927694e-01  -2.3353746324871211e-01  -8.3332432929746569e-01  -6.0601118369029094e-02  -5.4750644358014922e-01  -6.7191589038999300e-01  -6.7176223239428612e-01  -8.4247927934542266e-01  -1.2670374013830554e-01  -5.9663296820864875e-01  -4.1679238201725072e-01  -4.1774370080703482e-01  -4.0928340514196110e-01  -4.9560918083213423e-01  -4.2630100290016676e-01  -3.1715070066900780e-01  -6.7305728687203270e-01  -5.4622948967616647e-01  -1.9039223069719646e-01  -2.0018515724825880e-01  -5.3438887351851838e-01  -3.1246492728989433e-01  -6.8516657483746912e-01  -6.8521554591635958e-01  -2.7774656724900376e-01  -2.2966121690614033e-01  -2.1419239951500685e-01  -5.3252177486052676e-01  -5.4761153946184871e-01  -3.3293797184609025e-01  -1.8372299713624385e-01  -6.3111905514411426e-01  -3.3151875766325811e-01  -4.5046075521743317e-01  -2.7827600250317391e-01  -6.3469434574920824e-01  -5.8463515899942931e-01  -7.7053218671095780e-01  -5.8556610441844670e-01  -6.3379795185318077e-01  -1.7433903424939973e-01  -1.7721341245065303e-01  -8.1629285918397554e-01  -1.7734144396889964e-01  -1.9343795269899031e-01  -5.9035131592089829e-01  -4.9110523823098451e-01  -4.8294471208601591e-01  -1.0555512181152935e-01  -6.4579994607401781e-01  -2.8977033944140440e-01  -5.7352212215513643e-01  -2.1767418339633521e-01  -2.5569922488541664e-02  -2.5618042333859729e-02  -3.9678599095337547e-01  -2.0799172294900495e-01  -6.5645759556984862e-01  -3.0690772427970747e-01  -3.0912373383097314e-01  -5.3046218529367628e-01  -2.3513786117007979e-01  -2.7230069391247730e-01  -2.9797157963409099e-01  -7.8784690397633417e-01  -7.9920311811044764e-01  -5.5710552050386941e-01  -6.6231255599027372e-01  -4.4158677605756969e-01  -6.4658853526522819e-01  -5.7274222858877055e-01  -1.7677479544610716e-01  -5.1046810705004005e-02  -6.7907299154014222e-02  -5.1752748315532435e-02  -7.6143594797613928e-02  -5.7926016247513840e-02  -2.4979663174122323e-02  -2.7328557724114064e-02  -4.0362454372983514e-01  -3.7221561584990676e-01  -4.6111629841413032e-01  -7.6716245751223419e-02  -5.3256224911833516e-01  -1.3963782870509961e-01  -4.2915036691684239e-01  -8.8754356087005812e-02  -3.3064648659681656e-01  -7.8681944566132833e-01  -8.0430253065750312e-01  -8.0527161415475534e-01  -2.7867127405194531e-01  -6.8630014689937868e-01  -5.3285142248738282e-01  -7.5748708748748186e-02  -5.3292040409438635e-01  -8.3845119760945364e-01  -8.3857229147065482e-01  -3.3090219741262639e-01  -5.8490790244603230e-01  -6.3455302166560645e-01  -6.3491439484902013e-01  -5.8361242663672830e-01  -5.8440766072651451e-01  -6.3582817812014514e-01  -7.6342903434779230e-02  -4.8303088628132518e-01  -3.8557225787486960e-01  -4.8311178858648318e-01  -6.8615944669455364e-01  -7.3606867361601935e-01  -1.2678279166959311e-01  -1.2662765289732877e-01  -1.2701198167443975e-01  -3.8253014371730965e-01  -7.3640660966935390e-01  -7.3622084719703540e-01  -7.8801427929249201e-01  -7.3619210384774070e-01  -2.2838154562216284e-01  -2.7920779248459621e-01  -5.3301995364166554e-01  -4.8251216515189327e-01  -2.4688998756657542e-02  -6.8609517246527152e-01  -2.2889311277882377e-01  -2.2870914457525909e-01  -7.8682682123947534e-01  -3.7962039201810538e-01  -4.5778277076843338e-01  -3.6899484934696070e-01  -3.3108113700707509e-01  -4.1587117374344540e-01  -5.2357480864620741e-02  -2.5074524707604167e-02  -3.4282631449961837e-01  -6.9834860190098791e-01  -7.9568779377199039e-01  -9.9943498692423124e-02  -1.0450510062123315e-01  -1.4028167554037332e-01  -4.0077646675335898e-01  -7.5993819015204478e-01  -7.6307005997178989e-01  -4.6172947020268346e-01  -6.6100270764262545e-02  -5.9971843543169590e-02  -2.8970973945786227e-01  -6.8661349150442264e-01  -6.9020705930569526e-01  -9.2940802238070996e-02  -1.9127689259805949e-01  -4.4450923146479893e-01  -4.3745838061137876e-01  -4.2377147610160376e-01  -4.3224262399175434e-01  -1.6802233414874307e-01  -7.7442168429171798e-01  -7.9694093864405202e-01  -7.9646870582160767e-01  -7.6018913687710521e-01  -7.2376994313217413e-01  -1.1407778827415542e-01  -1.1419204032587139e-01  -3.6934151831255013e-01  -3.9781635668273896e-01  -8.4047400416520968e-01  -4.9303013755196323e-01  -4.5874673378458097e-01  -3.6642341250421034e-01  -4.6242166606805263e-01  -4.9646992989664807e-01  -7.2157644700312107e-01  -7.2156843202567200e-01  -3.9683806808213123e-01  -5.0305928999507621e-01  -1.3442419926638216e-01  -7.5749002900413021e-01  -7.3222491013459434e-01  -7.6630645456076063e-01  -7.2368421400610461e-01  -7.5376740177372825e-01  -7.3210096549136394e-01  -4.6414529885593891e-01  -4.9415039672900662e-01  -3.6927508580947976e-01  -3.6260247069745344e-01  -7.1522472681848104e-01  -1.3104760409026897e-01  -1.4588326502486856e-01  -1.3420426956628517e-01  -1.4600763765621511e-01  -1.4850707049650078e-01  -1.0578768211965606e-01  -8.4049466045701815e-01  -7.4908062431652400e-01  -7.2373705369742070e-01  -6.0008737546344865e-02  -8.4187460342445197e-01  -3.7235039639324652e-01  -3.9744332620539752e-01  -4.1726405622180890e-01  -1.7943502452090060e-01  -4.1050659759198488e-01  -6.9834774184685622e-01  -5.2058243149924555e-01  -8.1014097683497177e-01  -7.7258179596183396e-01  -1.4779884358901180e-01  0.0000000000000000e+00  -1.0506616808505961e-01  -7.9974759840767462e-01  -1.5648608747343326e-01  -5.5233012100624423e-01  -5.2063582271737885e-01  -1.6848427072846681e-01  -7.0118806288528190e-01  -8.6320961894982651e-01  -2.1551013066021188e-01  -3.0179549523721799e-01  -4.1783583991097417e-01  -4.5982704940625824e-01  -3.4425810931403289e-01  -6.5763574088436882e-01  -5.6172032869172983e-01  -8.4036595899481337e-01  -8.4347587969774995e-01  -8.4211367428632811e-01  -1.7242177888452903e-01  -1.9228454058877527e-02  -8.0111128212738481e-01  -8.4179661055508126e-01  -6.9308764552707047e-01  -2.0181765244680270e-02  -5.7523027350888445e-01  -5.9696858149250775e-01  -6.2231211063041270e-01  -6.1252162668962673e-01  -6.0856213487786348e-01  -2.5548071450474058e-01  -2.6235338032065614e-01  -2.5189873274438396e-01  -2.4505705603557426e-01  -2.1762374501140408e-01  -2.8976022425030717e-01  -6.4580522288301556e-01  -5.7449863934365819e-01  -9.2602413495423710e-02  -1.0516100525552501e-01  -8.0843163671212248e-01  -2.0670289461565231e-01  -2.3439152826812612e-01  -2.5701473173422584e-01  -5.8956396419503010e-01  -6.2971320311678847e-01  -2.6639687595202405e-01  -5.2073847231418935e-01  -6.1234470060567414e-01  -6.4756167153690214e-01  -5.7162200352860304e-01  -4.4911126298149534e-01  -6.1230248775697804e-01  -2.5506258168168339e-01  -2.5236940649228429e-01  -6.0627611155462635e-01  -3.4310740556963520e-01  -8.6320961894982651e-01  -6.3138757681165170e-02  0.0000000000000000e+00  -1.8217670813463659e-02  -2.0578996311801000e-02  0.0000000000000000e+00  -1.5521569712119043e-01  -1.8837870587343475e-01  -8.2035541380948263e-01  -5.6635802608595065e-01  -6.5317436840487753e-01  -2.8993643588260948e-01  -8.2013784920099042e-01  -7.8334312382231064e-01  -2.8735893173108318e-01  -5.3409851331851954e-01  -1.7845071973658699e-01  -4.2167556968689035e-01  -7.1772134866613446e-01  -5.4067498765318933e-01  -2.2144508367052920e-01  -5.1087639273809182e-01  -7.1780627099938421e-01  -4.7377964073335638e-01  -3.7886818083711682e-01  -3.5294220152675093e-01  -8.0779640918799334e-01  -4.1886436727483184e-01  -4.9326891602781880e-01  -4.8709405510055681e-01  -4.7420741935504723e-01  -3.9577639226728828e-01  -4.9275356109389262e-01  -3.4221983060752442e-01  -3.3072081949401144e-01  -4.3864166431821550e-01  -4.3725385669139544e-01  -4.1352509807448623e-01  -4.0626454274484708e-01  -3.9824397473073586e-01  -3.5117078370234955e-01  -5.1406612107976757e-01  -4.0471242237265820e-01  -3.9937359221520957e-01  -4.5367722955400447e-01  -4.4745283816536580e-01  -4.3990884378881839e-01  -4.1075226171330081e-01  -4.5816018428203165e-01  -4.5508493937860611e-01  -4.2980575560488027e-01  -4.3172963717716262e-01  -4.3009409639884949e-01  -4.0806674511025104e-01  -4.3047396536462035e-01  -4.2406845577547125e-01  -4.2860406720363492e-01  -4.3419893127132059e-01  -4.3971808581850391e-01  -4.9547993734417745e-01  -3.9100187654394825e-01  -5.1812348403540065e-01  -5.3356030621142425e-01  -3.8285938251845164e-01  -3.6937034824826698e-01  -3.3125320684771636e-01  -3.2744922759507722e-01  -4.7823981755274175e-01  -3.4705618511892072e-01  -3.4374310773325806e-01  -3.4146720400289848e-01  -4.9934432822721275e-01  -5.0228494687905645e-01  -3.8486902900725195e-01  -4.2229637495628614e-01  -4.2515775836774883e-01  -4.2398973322000577e-01  -4.3386402853744593e-01  -3.5535001335972799e-01  -3.8383624144233824e-01  -4.3740887615536983e-01  -4.4226009561719176e-01  -5.2241385103863647e-01  -3.8202387774654833e-01  -4.8061419267333899e-01  -4.7104608705189599e-01  -4.7964532852689623e-01  -3.9728027597379145e-01  -5.0446188154709171e-01  -5.2727825312577070e-01  -5.1970626525312236e-01  -5.2163543063616868e-01  -5.1538776633683203e-01  -5.3445854431063433e-01  -5.4041490009654092e-01  -4.4547052210656612e-01  -4.4364973055451529e-01  -5.2070783389159481e-01  -4.7786250996433727e-01  -3.7368098038901987e-01  -4.1277183877083456e-01  -4.3197004175147197e-01  -4.2911658065702479e-01  -4.4635094983180940e-01  -4.5012085093700893e-01  -4.3944905932417372e-01  -3.9493180731905542e-01  -3.8436777141729389e-01  -3.7017113183976535e-01  -4.8799417757457314e-01  -5.0217991866530953e-01  -4.4502835101669014e-01  -4.3168253275591906e-01  -4.7386426692154215e-01  -3.6478279362329674e-01  -3.5742886934129153e-01  -3.4366701935790467e-01  -3.6790470272247577e-01  -3.3882725800435265e-01  -3.2831342125429291e-01  -4.2797803095228698e-01  -4.4701009851004564e-01  -4.5222688117705218e-01  -3.9606552521091209e-01  -3.8675557402134442e-01  -4.0918553971483718e-01  -4.3791089192941085e-01  -4.2448318730375018e-01  -3.6622945645429278e-01  -4.6314595093553362e-01  -4.7197425976636143e-01  -4.1942263498974403e-01  -3.8900285764939219e-01  -4.6426103921213202e-01  -5.1361937065277652e-01  -5.3575793626345192e-01  -5.2147453203985683e-01  -5.0039807525222424e-01  -4.1761291722279237e-01  -3.9530105827120865e-01  -4.6967600640018048e-01  -4.9427214169042605e-01  -4.0014949130273536e-01  -4.9800602616404654e-01  -4.8510024072824831e-01  -3.3194595027596036e-01  -3.1990393380874865e-01  -3.4939706759846867e-01  -4.0760053182018652e-01  -3.5586450957117621e-01  -3.5684981736295002e-01  -3.6262303477833080e-01  -3.6906957623419834e-01  -3.9782206701942635e-01  -4.7125924170517330e-01  -4.2955936069822970e-01  -4.7008737589294419e-01  -4.9161333577368749e-01  -4.7364609897265236e-01  -3.5069440073524127e-01  -3.7346211354905834e-01  -3.6428742255783053e-01  -3.9731636999391634e-01  -4.1515706961301574e-01  -4.2177381363536082e-01  -5.0758457609820862e-01  -5.0833810233209742e-01  -4.2735551544588951e-01  -4.3209508515214734e-01  -4.6960781744734137e-01  -3.6146025246082997e-01  -4.2579316618345581e-01  -4.1946882365002702e-01  -5.2622979023808125e-01  -5.0014615442768062e-01  -5.0225045815226121e-01  -4.6192693610502034e-01  -4.6380436407749287e-01  -3.8328565606320442e-01  -3.6513720483110457e-01  -3.6315377658138598e-01  -4.2117292646290155e-01  -4.1644241424359996e-01  -4.2418858498316825e-01  -4.3084677634862578e-01  -4.3142626832702818e-01  -4.4207638349305239e-01  -4.4626385818278780e-01  -4.1642950247787375e-01  -4.1900946196328220e-01  -4.1093505395795971e-01  -4.0442933677301202e-01  -4.0441851584222283e-01  -4.0061033681314323e-01  -3.9470203591522535e-01  -4.0809086938106709e-01  -4.1213982054414422e-01  -4.5732215026336154e-01  -4.3419265011140085e-01  -4.4262660061291409e-01  -4.4530824731622570e-01  -4.4112144776594669e-01  -4.4548176844450676e-01  -4.1964333390939157e-01  -4.0392308445248182e-01  -4.5532290563183486e-01  -4.5202295646950241e-01  -4.2113269345826354e-01  -4.2684297338446858e-01  -4.2432995386636646e-01  -4.3093946505386405e-01  -4.3781929042543288e-01  -4.3670089778235305e-01  -4.2935448903419893e-01  -4.2823930665129106e-01  -4.3263092262907821e-01  -4.1314351492586943e-01  -4.3516357050563992e-01  -4.2672599149204016e-01  -4.3256612881838141e-01  -4.3413543326946147e-01  -4.3850680603362518e-01  -4.3165081367489783e-01  -4.3088649421739444e-01  -4.2290846045681879e-01  -4.2889124267962492e-01  -4.2393592240251921e-01  -4.2067989244970061e-01  -4.2801823108232823e-01  -4.2555245635585670e-01  -4.2145187462166250e-01  -4.2535009171587734e-01  -4.2535796568109485e-01  -4.3973195182419156e-01  -4.3435999382561707e-01  -4.4088061228062803e-01  -4.3395462280523928e-01  -4.4443123236217014e-01  -4.4833882086183008e-01  -4.5187608810848623e-01  -4.4543820716951660e-01  -4.3912609560247534e-01  -4.0493203177611503e-01  -4.1475895471711921e-01  -4.1720803276726737e-01  -4.3006879602775483e-01  -4.3044664257346243e-01  -4.3353496443852946e-01  -4.3086480070423944e-01  -4.2910911609397229e-01  -4.5676366490672377e-01  -4.4281507317385943e-01  -4.5480383474093855e-01  -4.4618217179615055e-01  -4.3826273008111055e-01  -4.3033633967986129e-01  -4.5680705399852856e-01  -4.4814701343571184e-01  -4.5105512702828660e-01  -4.0493171048072407e-01  -4.1351776939141960e-01  -4.1465098900279257e-01  -4.0704502241939977e-01  -4.3177610884579165e-01  -4.2004352957782382e-01  -4.1370688815572293e-01  -4.1784952519937518e-01  -4.0527805681496099e-01  -3.9903477175338353e-01  -4.2842112897470241e-01  -4.2622495286399015e-01  -4.3048683229227602e-01  -4.2835372781288683e-01  -4.3486013517692440e-01  -4.3121098978585737e-01  -4.2206352518494761e-01  -4.2320278516667992e-01  -4.5770848693335875e-01  -4.5758346162203528e-01  </DataArray> 
</PointData> 
</Piece>
</UnstructuredGrid>
</VTKFile>