<?xml version="1.0"?>
<VTKFile type="UnstructuredGrid"  version="0.1"  >
<UnstructuredGrid>
<Piece  NumberOfPoints="778" NumberOfCells="1401">
<Points>
<DataArray  type="Float64"  NumberOfComponents="3"  format="ascii">1 -1 0  6 -1 0  6 1 0  1 1 0  1 6 0  -1 6 0  -1 1 0  -6 1 0  -6 -1 0  -1 -1 0  -1 -6 0  1 -6 0  1 3.5 0  -1 3.5 0  -1 -3.5 0  1 -3.5 0  3.5 -1 0  3.5 1 0  -3.5 -1 0  -3.5 1 0  -1 -2.25 0  1 -2.25 0  2.25 -1 0  2.25 1 0  -1 2.25 0  1 2.25 0  -1 4.75 0  1 4.75 0  -4.75 -1 0  -4.75 1 0  -2.25 1 0  -2.25 -1 0  1 -4.75 0  -1 -4.75 0  4.75 1 0  4.75 -1 0  0 0 0  -2.875 0 0  -1.625 0 0  -4.125 0 0  -6 0 0  0 2.875 0  2.875 0 0  0 6 0  1.625 0 0  0 -2.875 0  0 -1.625 0  0 1.625 0  0 4.125 0  0 -6 0  0 -4.125 0  4.125 0 0  6 0 0  -0.109375 5.0625 0  -5.0625 -0.109375 0  -0.109375 -5.0625 0  5.0625 0.109375 0  0.8125 -0.1875 0  -0.1875 -0.8125 0  -0.8125 0.1875 0  -0.1875 0.8125 0  1 5.375 0  -5.375 1 0  1 -5.375 0  5.375 -1 0  0.53515625 0.46484375 0  -5.375 -1 0  -1 5.375 0  -1 -5.375 0  -0.5 -6 0  5.375 1 0  6 0.5 0  3.5 0.3046875 0  3.43125 -0.34765625 0  2.875 -1 0  4.125 1 0  0.3046875 3.5 0  -0.34765625 3.56875 0  -1 4.125 0  1 4.125 0  -0.3046875 2.25 0  0.34765625 2.18125 0  1 1.625 0  -1 -1.625 0  -0.3046875 -3.5 0  0.34765625 -3.56875 0  1 -4.125 0  0.3046875 -2.25 0  -0.34765625 -2.18125 0  -1 -4.125 0  -1 -2.875 0  1 -2.875 0  1 -1.625 0  1.625 -1 0  1.625 1 0  2.25 0.3046875 0  2.18125 -0.34765625 0  4.125 -1 0  2.875 1 0  1 2.875 0  -1 1.625 0  -1 2.875 0  -4.125 -1 0  -2.25 0.3046875 0  -2.31875 -0.34765625 0  -2.875 -1 0  -1.625 1 0  -4.125 1 0  -3.5 0.3046875 0  -3.56875 -0.34765625 0  -1.625 -1 0  -2.875 1 0  0.380626321794301 1.06853329530276 0  -1.110819327731092 -0.3739495798319328 0  0.3739495798319328 -1.110819327731092 0  1.151210293219304 0.3991939332620648 0  -0.5 -4.4375 0  0.5 -4.4375 0  5.481553398058253 -0.3712833737864077 0  0.5 4.4375 0  0.5 6 0  -0.522503783594538 -0.3265648647465863 0  -1.3125 0.5 0  -0.5 6 0  0.3265648647465863 -0.522503783594538 0  4.4375 0.5 0  4.4375 -0.5 0  0.5 -6 0  -6 -0.5 0  -5.481553398058253 0.3712833737864077 0  -4.55 -0.4296875 0  -4.4375 0.5 0  -0.5 4.4375 0  0.4792930825242718 5.026881067961165 0  0.4792930825242718 -5.026881067961165 0  -0.5 1.3125 0  1.3125 -0.5 0  -0.5 -1.3125 0  0.25 5.518539952962044 0  0.2125133872612723 -5.500076563152851 0  4.969341874373811 -0.5152550785163683 0  -4.969341874373811 0.5152550785163683 0  3.927189744345589 -0.4712876597840069 0  -5.554036458333333 -0.25 0  5.554036458333333 0.25 0  -0.4690710616438356 -5.462756849315069 0  -0.4690710616438356 5.462756849315069 0  -6 0.5 0  -1.59556436210848 -0.5 0  -3.058421751829955 -0.5 0  -0.5 2.731982421875 0  0.5 2.691578248170045 0  2.691578248170045 -0.5 0  1.641211254104555 0.5 0  0.5 -1.768017578125 0  0.5 -3.058421751829955 0  0.5 1.699267578125 0  3.018017578125 0.5 0  -0.5 -3.018017578125 0  -2.731982421875 0.5 0  6 -0.5 0  -4.050017120925308 -0.5006099332648871 0  -3.940668202764977 0.5371363767281105 0  3.940668202764977 0.5371363767281105 0  0.4517449476047904 3.958458083832335 0  -0.4517449476047904 -3.958458083832335 0  -1.809331797235023 0.5371363767281105 0  -0.4517449476047904 1.791541916167665 0  -0.0546875 4.59375 0  -5.006445312499999 -0.58984375 0  4.605643203883496 -0.04725424757281554 0  4.90625 0.5546875 0  -0.5546875 4.90625 0  0.04725424757281554 -4.605643203883496 0  -0.586116118210531 -4.995821561900013 0  -4.603710222472543 0.04846236095466061 0  -3.1875 0.65234375 0  0.6163907621110913 3.147502300973589 0  2.5625 0.65234375 0  0.6163907621110913 -2.602497699026411 0  -0.637456713551384 3.189259902731882 0  -0.637456713551384 -2.560740097268118 0  -0.34765625 0.34765625 0  -0.639453125 0.708203125 0  0.089630126953125 0.437286376953125 0  -0.4238281249999999 -1.746875 0  1.746875 -0.4238281249999999 0  -0.4238281249999999 4.003125 0  0.4238281249999999 -4.003125 0  -2.5625 -1 0  3.1875 -1 0  -0.09375 -1.21875 0  1.21875 -0.09375 0  0.4020305405760241 -0.1120343241705621 0  -0.6280191027904287 -0.7577505545748082 0  0.90625 -0.59375 0  -1.205500904741459 0.03633725387965409 0  -0.02129048848213058 1.202028574265107 0  -0.1120343241705621 -0.4020305405760241 0  1 1.3125 0  -2.003587563743074 -0.6442361556699288 0  0.6640077663259718 -1.395873598614549 0  5.6875 -1 0  0.6308138580859101 -5.592151086468728 0  -5.6875 -1 0  0.6568032075915271 5.612942566073222 0  5.616530031741774 0.6612875396772174 0  -5.6875 1 0  1.9375 1 0  -1.3125 -1 0  0.1524679547155687 -3.232579139388032 0  0.1524679547155687 2.517420860611968 0  -3.232579139388032 -0.1524679547155687 0  -1.932320553757026 -0.252759244693845 0  2.517420860611968 -0.1524679547155687 0  -0.04776045819569434 -2.464949198504599 0  -0.2420369079104247 3.187693796852321 0  3.751304711039982 -0.1203080877045035 0  -5.397601941771943 -0.609026059866711 0  1.3125 1 0  1.9375 -1 0  -0.6946315101963667 -2.018229242739021 0  -0.6946315101963667 3.731770757260979 0  1 -3.8125 0  2.014364435550335 0.6166648446293641 0  -1 5.6875 0  -1 -5.6875 0  -2.653476149871182 -0.5942957192996303 0  3.096523850128818 -0.5942957192996303 0  1 1.9375 0  -3.8125 -1 0  0.586975531244212 -0.7975955463807081 0  -0.2946248980953088 -4.743710873809568 0  2.625453376770019 0.2814788818359375 0  -3.124546623229981 0.2814788818359375 0  -0.1204856417894853 5.631800603217465 0  5.253862011026742 0.6581468962876398 0  -0.65234375 2.108701557941197 0  0.65234375 3.641298442058803 0  -0.65234375 -3.641298442058803 0  -0.25 -5.744880569758637 0  -4.4375 -1 0  -0.3166212631734941 -2.713595940002554 0  0.6591479224207506 0.1324305912687024 0  0.8660781906552419 0.6468634238104103 0  -0.9887189158197679 0.6452930723873549 0  0.3149351927204296 -1.460971774996065 0  -0.3572852727880474 -0.009629022788047503 0  2.09375 -0.6866724363772454 0  0.6866724363772454 -3.65625 0  0.6866724363772454 2.09375 0  -3.65625 -0.6866724363772454 0  -3.5371337890625 0.65234375 0  -0.1389584113023952 1.944025352615082 0  -2.151744288472698 0.65234375 0  -0.1389584113023951 -3.805974647384918 0  0.1389584113023951 3.805974647384918 0  -2.578772109813904 0.1857224367977529 0  3.171227890186096 0.1857224367977529 0  3.360315647536819 0.65234375 0  0.1857224367977528 -1.921227890186096 0  0.65234375 -2.110315647536819 0  1.894016528727564 0.2415406141485869 0  -3.738232421875 0 0  0.2516875549238616 3.139069895099618 0  -1.913724396854074 0.2011142179916434 0  0.1669456568161915 0.7843410671359501 0  -2.5625 1 0  -1 -3.1875 0  -1 2.5625 0  0.1736601499778735 4.857955663330752 0  -0.1893536587212888 2.577300639071919 0  -0.1893536587212888 -3.172699360928081 0  3.852271904453858 0.206603749322895 0  -3.8125 1 0  -0.1250095034621793 -5.421707592768541 0  3.8125 -1 0  3.617304217264373 -0.6578427703661498 0  0.2630176195580202 -2.636558318495885 0  0.2674330357770522 1.399517071108871 0  0.631726413079416 1.339254523727593 0  4.700571879807737 0.2813704945051134 0  0.7143844363649634 -3.319538455208831 0  2.430461544791169 -0.7143844363649634 0  0.7143844363649634 2.430461544791169 0  -3.319538455208831 -0.7143844363649634 0  5.687045771608623 -0.6520598572553891 0  -5.687045771608623 0.6520598572553891 0  -1.15625 -0.7048248829733235 0  3.438284572973296 -0.01860298867862281 0  -0.03021088078697859 3.451572359862192 0  2.216682837011589 -0.02159585961918548 0  -2.191580885932936 -0.03126387444658879 0  0.1857410764408683 1.895679405349457 0  3.103473238297955 -0.253270943723272 0  -2.646526761702045 -0.253270943723272 0  -2.333137350671861 -0.6791984914172315 0  -1 5.0625 0  -0.6971235589909319 5.213002544375844 0  0.01618705363819947 2.225929180591695 0  0.01618705363819947 -3.524070819408305 0  0.5690054882403073 0.7951310720450595 0  -0.5764940424412852 -3.329579265180942 0  -0.5764940424412852 2.420420734819058 0  3.8125 1 0  -5.372163860234628 0.04365139563106807 0  5.164108319316826 -0.225040894204947 0  -5.361952437854323 0.6744012088984681 0  -5.0625 1 0  5.286835586913878 -0.6616705837083201 0  -5.692815197359722 0.1186699900166531 0  5.663425996156958 -0.07763197815533956 0  -0.9219866027132193 -0.1143045829323572 0  -1.394333629759332 -0.2233077430199216 0  0.09322478991596644 -0.9616596638655462 0  5.0625 -1 0  -0.14412109375 -1.92169189453125 0  -4.28125 -0.7212148987671345 0  0.2649796277366407 0.1735162902120744 0  -4.907855692236596 0.1868230509619793 0  -1.9375 1 0  1 5.0625 0  0.6915124486819284 -5.272938212550202 0  0.683483242673902 5.284948082526911 0  2.5625 -1 0  -1 -3.8125 0  -1 1.9375 0  5.0625 1 0  -1 -1.9375 0  1 5.6875 0  1 -5.6875 0  -1.9375 -1 0  -1 -2.5625 0  -1 3.1875 0  1 -3.1875 0  1 -2.5625 0  1 2.5625 0  1 3.1875 0  -5.0625 -1 0  -1 -1.3125 0  1.3125 -1 0  -1 1.3125 0  -1 3.8125 0  -1 4.4375 0  -4.4375 1 0  4.4375 -1 0  4.4375 1 0  -1.3125 1 0  1 4.4375 0  1 -4.4375 0  -1 -5.0625 0  -1 -4.4375 0  -3.1875 1 0  2.5625 1 0  1 -1.9375 0  1 -1.3125 0  5.6875 1 0  1 3.8125 0  3.1875 1 0  -3.1875 -1 0  1 -5.0625 0  1.35138038998199 0.6675097549271188 0  -0.465625 0.986328125 0  1.435958105992309 0.2563920171199723 0  1.915914614192913 -0.145782394639918 0  -0.8764440609469509 -0.5746869313612541 0  5.355194559946098 0.01566259380337612 0  -5.69333042954964 -0.5242868300459975 0  1.78125 -0.7320750794491524 0  0.7320750794491525 -3.96875 0  -0.3959075548864684 5.166422468926435 0  -4.770522389068053 -0.2123670725088856 0  -4.714160156249999 -0.69234375 0  -4.273484403713342 -0.278160994327167 0  0.9642590244517505 0.08196089404241463 0  0.3500261717645397 -4.727285205957206 0  0.6740868006020392 -4.765147848348443 0  0.6797550207247084 -1.089747806381148 0  -5.186479934354063 0.3046329157552757 0  -5.263288238215326 -0.3369092276308425 0  -2.433484016245305 0.5442571297016638 0  0.1707808983307866 -3.82363304980935 0  -0.1554012991031027 3.867535742674252 0  4.855508096805579 -0.2283975605264581 0  3.644517238097614 0.5646428152488787 0  0.05699603874439441 -0.6452791208413911 0  -0.3550018917972689 -0.5695324323732931 0  0.6
[...]
<PointData  Scalars="u"> 
<DataArray  type="Float64"  Name="u"  format="ascii">-4.8322172483819681e-01  0.0000000000000000e+00  0.0000000000000000e+00  -4.7937979225564875e-01  -9.5847156259669120e-01  -9.5847156259669120e-01  -4.7990933695593713e-01  0.0000000000000000e+00  0.0000000000000000e+00  -4.7977854870627984e-01  -9.5847156259669120e-01  -9.5847156259669120e-01  -7.3227559715943469e-01  -7.3305551312773376e-01  -7.3217548436874180e-01  -7.3268019903165793e-01  -2.2606049394762498e-01  -2.2667988875587267e-01  -2.2589090341006901e-01  -2.2666968946930238e-01  -6.1959981443811640e-01  -6.2057338771185400e-01  -3.3870028424727122e-01  -3.3876587589782281e-01  -6.2053053866092689e-01  -6.2010367131975808e-01  -8.4485280746745584e-01  -8.4553137830957859e-01  -1.1318712757241330e-01  -1.1299359025038899e-01  -3.3927101662581233e-01  -3.3916201028356796e-01  -8.4608128718840658e-01  -8.4564982666653299e-01  -1.1396578720478444e-01  -1.1290951609287860e-01  -4.7839661595043176e-01  -2.8228434859665952e-01  -3.9398415511743701e-01  -1.6946598986127420e-01  0.0000000000000000e+00  -6.7645591305353381e-01  -2.8222124837559692e-01  -9.5847156259669120e-01  -3.9368739064036651e-01  -6.7645357861328104e-01  -5.6474319687728414e-01  -5.6474601799749136e-01  -7.8924469912662010e-01  -9.5847156259669120e-01  -7.8920228396147651e-01  -1.6937205396729929e-01  0.0000000000000000e+00  -8.7383754798200219e-01  -8.4793839801235782e-02  -8.7387331754232933e-01  -8.4694472950378644e-02  -4.5574559742541815e-01  -5.0175288333966950e-01  -4.5593224602040633e-01  -5.0174224238419984e-01  -9.0199730186620142e-01  -5.6271278889918272e-02  -9.0168510224445253e-01  -5.6049951069583936e-02  -4.7597111541594672e-01  -5.7598330090900790e-02  -9.0237063699523767e-01  -9.0196736378473430e-01  -9.5847156259669120e-01  -5.6190167713022030e-02  0.0000000000000000e+00  -2.2593643457380866e-01  -2.3205344166947506e-01  -2.8236790695709552e-01  -1.6911722580435914e-01  -7.3285837646717178e-01  -7.3906319490243189e-01  -7.8917628195508183e-01  -7.8934428774095089e-01  -6.2010583604641967e-01  -6.1389660611832353e-01  -5.6280103592642838e-01  -5.6236960809245962e-01  -7.3279019790460342e-01  -7.3902606527979275e-01  -7.8918238030133525e-01  -6.2010899392400443e-01  -6.1386973005822798e-01  -7.8867693251873239e-01  -6.7682564077696961e-01  -6.7703375229259388e-01  -5.6271218761369157e-01  -3.9660756738714442e-01  -3.9626888995458870e-01  -3.3852908256285841e-01  -3.4470164096863876e-01  -1.6968639886922038e-01  -2.8212697522676472e-01  -6.7585515248571693e-01  -5.6256102160591104e-01  -6.7597514658666091e-01  -1.6970316881460376e-01  -3.3874876942129450e-01  -3.3253167809841677e-01  -2.8218562424327814e-01  -3.9699195863261350e-01  -1.6970921554669380e-01  -2.2593520411854079e-01  -2.1968270773486914e-01  -3.9655711337725796e-01  -2.8223455006197962e-01  -5.1637763191995290e-01  -4.3834744144452820e-01  -5.1998163263668407e-01  -4.3552701978894887e-01  -8.1743881842545252e-01  -8.1739120275150157e-01  -4.6910248204225589e-02  -8.1743592014901145e-01  -9.5847156259669120e-01  -4.7250415552606972e-01  -4.2350866234460827e-01  -9.5847156259669120e-01  -4.8473296074568106e-01  -1.4118615303091669e-01  -1.4113275684612231e-01  -9.5847156259669120e-01  0.0000000000000000e+00  -4.6909438935647904e-02  -1.3113238788076406e-01  -1.4125634631818623e-01  -8.1732945909981880e-01  -8.7057135121859375e-01  -8.7063448983991099e-01  -5.3540503823114649e-01  -4.2301027784544687e-01  -5.3512043156468747e-01  -9.1501162770181843e-01  -9.1335389895723629e-01  -9.3220275464124869e-02  -9.3141829082150740e-02  -1.8723990647565111e-01  -4.0371108579108278e-02  -4.0259271278355005e-02  -9.0994867066625507e-01  -9.0995386450112625e-01  0.0000000000000000e+00  -3.9809776862106244e-01  -2.6572052244191596e-01  -6.6358466989644849e-01  -6.5987076352082785e-01  -2.9877188698492185e-01  -3.9358133783455906e-01  -5.7640822254779545e-01  -6.9302575079672279e-01  -5.7022624572629632e-01  -2.6937245383984970e-01  -6.8929281951740018e-01  -2.9513109892417683e-01  0.0000000000000000e+00  -1.7624047987859132e-01  -1.8623803280531620e-01  -1.8615739624835081e-01  -7.7429340010008174e-01  -7.7413160326819841e-01  -3.7872965211868426e-01  -5.7861495028371313e-01  -8.3151532405129092e-01  -8.9977532087638271e-02  -1.2598115446765401e-01  -9.8822653819416489e-02  -8.5971164598718386e-01  -8.3260458467741072e-01  -8.6788506819259925e-01  -1.2622718081770321e-01  -2.5403269817126989e-01  -7.0109263910413255e-01  -3.1047366362872425e-01  -6.5184730121829859e-01  -7.0470925459636302e-01  -6.4816569428927229e-01  -4.7872409839904934e-01  -4.8270155106510504e-01  -4.8526812850809559e-01  -5.7465410470726130e-01  -3.8382229658319916e-01  -7.7827494410893350e-01  -7.7823723762179242e-01  -3.1003232727445257e-01  -2.5421341058480768e-01  -5.3083508621039099e-01  -4.2718981856699051e-01  -4.7291889819049365e-01  -4.8553125222773280e-01  -4.5990671045011161e-01  -4.2828048913258698e-01  -5.2960322293639350e-01  -4.8402667461353843e-01  -5.3380703106035510e-01  -3.6126367703956230e-01  -5.4124756330512114e-01  -2.8612143888970817e-02  -9.2169442830752335e-01  -2.7671137827954072e-02  -9.2356706215789197e-01  -3.4569301242553689e-02  -2.9190370152377559e-02  -3.6705843865141041e-01  -4.2604165325196813e-01  -7.0870243566554791e-01  -6.4421939418796070e-01  -2.5002473428491856e-01  -3.6721559009176757e-01  -3.1442135249458525e-01  -6.3950648854236325e-01  -7.0467168755939424e-01  -2.0312584554355836e-01  -5.4578741928841705e-02  -4.2631573563368141e-01  -3.6743987349790774e-01  -5.9876831885812731e-01  -7.5388574818227039e-01  -7.6127957206456276e-01  -3.6006465775908808e-01  -9.2970256118748218e-01  -9.2967803257418513e-01  -3.0235835589757609e-01  -2.6224672066092902e-01  -5.9109086911213582e-01  -1.9739262895791410e-01  -4.9016058943208518e-01  -8.4509108470210381e-01  -3.0473961576276709e-01  -2.5979351792959549e-01  -9.2521963532826168e-01  -6.7404940189920881e-02  -6.0726971956508025e-01  -7.4567788493956833e-01  -7.4549172488597037e-01  -9.3540507851875743e-01  -1.4095840917612981e-01  -6.6192844342742452e-01  -4.6334605662729150e-01  -4.6437994136947230e-01  -4.5494779004008701e-01  -5.4978511311661393e-01  -4.7388629509529662e-01  -3.5283084086858113e-01  -7.4693378692587620e-01  -6.0584067952467691e-01  -2.1179303229251203e-01  -2.2268975932485147e-01  -5.9277958702606304e-01  -3.4765197486268701e-01  -7.6040136520197932e-01  -7.6047912055840550e-01  -3.0898714006532019e-01  -2.5552799348142125e-01  -2.3835695739725057e-01  -5.9068897945516596e-01  -6.0737219522814023e-01  -3.7035934144723365e-01  -2.0438535284591616e-01  -7.0030188502883672e-01  -3.6878524373991622e-01  -5.0029521918360109e-01  -3.0949119103823602e-01  -7.0429147061882691e-01  -6.4855973262635869e-01  -8.5536536267979135e-01  -6.4963151809107578e-01  -7.0327124527855545e-01  -1.9398441071108324e-01  -1.9711782438210568e-01  -9.0628086668181762e-01  -1.9730494927767617e-01  -2.1521908357750488e-01  -6.5494542096148278e-01  -5.4483253101194340e-01  -5.3568991035683911e-01  -1.1743783407554796e-01  -7.1660247904559748e-01  -3.2236232833887335e-01  -6.3623212719238942e-01  -2.4215878479005196e-01  -2.8439679861770085e-02  -2.8502054533071301e-02  -4.4120848698058845e-01  -2.3141750676585668e-01  -7.2848850777888940e-01  -3.4142088784431635e-01  -3.4387824458143701e-01  -5.8841424104255424e-01  -2.6160873060749201e-01  -3.0292260926499293e-01  -3.3148048573074007e-01  -8.7463320181725324e-01  -8.8730384270349438e-01  -6.1800569998962684e-01  -7.3498365475684091e-01  -4.9048420644002200e-01  -7.1747163196545083e-01  -6.3537015671881714e-01  -1.9665210529311911e-01  -5.6792395753747005e-02  -7.5559291303266468e-02  -5.7596595671839765e-02  -8.4746535004574242e-02  -6.4460003160567880e-02  -2.7798518187497120e-02  -3.0409869683643079e-02  -4.4877188692212844e-01  -4.1395165972282416e-01  -5.1195516955042597e-01  -8.5402260985309841e-02  -5.9073522013857849e-01  -1.5534662682363826e-01  -4.7702438253322438e-01  -9.8739159590704534e-02  -3.6804102003548900e-01  -8.7343141906451482e-01  -8.9291317209985677e-01  -8.9399802453976318e-01  -3.0999834576732671e-01  -7.6158851331625244e-01  -5.9090703050842242e-01  -8.4254455849208751e-02  -5.9086695039253900e-01  -9.3100328631858742e-01  -9.3112918117426846e-01  -3.6824402341020362e-01  -6.4884854569875561e-01  -7.0407555274658051e-01  -7.0447863798087518e-01  -6.4738979975320599e-01  -6.4836627649934642e-01  -7.0555773354322282e-01  -8.4907453503446584e-02  -5.3445425935266988e-01  -4.2896393517468073e-01  -5.3445520515857592e-01  -7.6152797984070042e-01  -8.1699562453950991e-01  -1.4108658663862039e-01  -1.4085571754323412e-01  -1.4135042662196076e-01  -4.2590299750114707e-01  -8.1741807859868754e-01  -8.1715902895256964e-01  -8.7488179451151316e-01  -8.1716534942030272e-01  -2.5410438071570307e-01  -3.1068672188538077e-01  -5.9103358925842175e-01  -5.3404395299623419e-01  -2.7374753568309203e-02  -7.6148734503969029e-01  -2.5475133392600124e-01  -2.5446442747405623e-01  -8.7347703645450347e-01  -4.2217910473860160e-01  -5.0817031539385271e-01  -4.1039109234046156e-01  -3.6828909453193975e-01  -4.6217147287731680e-01  -5.8249821845132194e-02  -2.7875697960380939e-02  -3.8141079961810914e-01  -7.7507706397356013e-01  -8.8334403844535603e-01  -1.1118951671140602e-01  -1.1627007936137809e-01  -1.5606217578333573e-01  -4.4561027210569787e-01  -8.4357903637283838e-01  -8.4706060380220083e-01  -5.1205379212410362e-01  -7.3533199415247649e-02  -6.6709582964212616e-02  -3.2228620018576243e-01  -7.6201347341738501e-01  -7.6602882758367374e-01  -1.0341930693011958e-01  -2.1282335255727694e-01  -4.9381225060237988e-01  -4.8605946049323595e-01  -4.7099730598841838e-01  -4.8042198126796670e-01  -1.8691868267904624e-01  -8.5967439966481485e-01  -8.8474055246006911e-01  -8.8421707461744803e-01  -8.4386029764541193e-01  -8.0336450065771148e-01  -1.2696999470478446e-01  -1.2704685438851676e-01  -4.1087957035369982e-01  -4.4230509087327413e-01  -9.3315807479285950e-01  -5.4698017257525877e-01  -5.0878948535847124e-01  -4.0753557207364188e-01  -5.1328748121517676e-01  -5.5075070822839611e-01  -8.0090074423356761e-01  -8.0090384799228809e-01  -4.4124521747281253e-01  -5.5771986256268258e-01  -1.4954146691606129e-01  -8.4084914845788805e-01  -8.1274203243321075e-01  -8.5066974883413737e-01  -8.0324409461107793e-01  -8.3669626265688968e-01  -8.1262375999745984e-01  -5.1442544781087607e-01  -5.4782103617133959e-01  -4.1070215283805794e-01  -4.0345327019947136e-01  -7.9380454972607040e-01  -1.4581304965203717e-01  -1.6230046562328546e-01  -1.4931896336426953e-01  -1.6241594291870581e-01  -1.6523319017664659e-01  -1.1768735516921275e-01  -9.3318320993652937e-01  -8.3150490702301860e-01  -8.0329404633557566e-01  -6.6758855331298078e-02  -9.3472687047421366e-01  -4.1416676493179955e-01  -4.4198663934083426e-01  -4.6388242469895369e-01  -1.9962370868827278e-01  -4.5634918336167390e-01  -7.7511551925237521e-01  -5.7728287074745199e-01  -8.9943578104652100e-01  -8.5764405586227499e-01  -1.6445295827145037e-01  0.0000000000000000e+00  -1.1689046227491277e-01  -8.8791139791059137e-01  -1.7408975001159535e-01  -6.1268646828597328e-01  -5.7730983748465503e-01  -1.8743360006154569e-01  -7.7825923065652081e-01  -9.5847156259669120e-01  -2.3979817416368457e-01  -3.3576617425531419e-01  -4.6439642090052641e-01  -5.0997105093437178e-01  -3.8300407835378109e-01  -7.2979617654313655e-01  -6.2304393837701078e-01  -9.3305564496589932e-01  -9.3651840785556606e-01  -9.3499449635113396e-01  -1.9185490268000649e-01  -2.1403847303748665e-02  -8.8937879009442355e-01  -9.3464815429456150e-01  -7.6921249489457311e-01  -2.2464873656575932e-02  -6.3813249111423953e-01  -6.6229746061122918e-01  -6.9051998120283820e-01  -6.7960001016741589e-01  -6.7521097726971502e-01  -2.8423043407773946e-01  -2.9187480319534753e-01  -2.8023154589962257e-01  -2.7261560971099164e-01  -2.4209306172995410e-01  -3.2235995697889785e-01  -7.1662800996563158e-01  -6.3731968956723017e-01  -1.0307157307952082e-01  -1.1701373971800778e-01  -8.9752898216433219e-01  -2.2994792289256691e-01  -2.6081841532949984e-01  -2.8595810609156475e-01  -6.5408502049540418e-01  -6.9872078915734159e-01  -2.9636407459102604e-01  -5.7740446163033654e-01  -6.7942171197952128e-01  -7.1861766175657482e-01  -6.3411836618333917e-01  -4.9877085069523108e-01  -6.7934497429025364e-01  -2.8374404168900480e-01  -2.8077779369315570e-01  -6.7268248195827984e-01  -3.8176131251972290e-01  -9.5847156259669120e-01  -7.0299881330370559e-02  0.0000000000000000e+00  -2.0273783038144543e-02  -2.2884624157539564e-02  0.0000000000000000e+00  -1.7269946561752311e-01  -2.0960639309019674e-01  -9.1078366959233426e-01  -6.2824642797829888e-01  -7.2482682764129658e-01  -3.2255402924079679e-01  -9.1055325635916728e-01  -8.6962591581228565e-01  -3.1967167808846914e-01  -5.9240431274509997e-01  -1.9851906424657378e-01  -4.6875311821594046e-01  -7.9660534814202888e-01  -5.9969848920694269e-01  -2.4637473893417111e-01  -5.6669175221684975e-01  -7.9673281370832683e-01  -5.2576002617093365e-01  -4.2136390906195426e-01  -3.9257705310574537e-01  -8.9682034597654492e-01  -4.6564595287276012e-01  -5.4728362870688518e-01  -5.4046932496498712e-01  -5.2629842427325990e-01  -4.4001226061366977e-01  -5.4671611424845579e-01  -3.8066239155101866e-01  -3.6788385397486029e-01  -4.8729427185051871e-01  -4.8524617919774460e-01  -4.5974163891213954e-01  -4.5169984950052772e-01  -4.4282957927792610e-01  -3.9060801244737986e-01  -5.7021301059241891e-01  -4.4981916746286404e-01  -4.4404145055040184e-01  -5.0372907811517598e-01  -4.9693112120344318e-01  -4.8872359878557509e-01  -4.5665778970445492e-01  -5.0862005717567860e-01  -5.0523345075040926e-01  -4.7759986875645860e-01  -4.7981832735587671e-01  -4.7805911181342448e-01  -4.5363145348930206e-01  -4.7848991181880041e-01  -4.7140616160428667e-01  -4.7637406910065699e-01  -4.8251007885552566e-01  -4.8854863963621964e-01  -5.4920820843876728e-01  -4.3511386073838809e-01  -5.7448491023259174e-01  -5.9175377524527373e-01  -4.2592730239278465e-01  -4.1080720550996608e-01  -3.6850341473405468e-01  -3.6426512603607469e-01  -5.3031785900464723e-01  -3.8611384437525526e-01  -3.8239016807140908e-01  -3.7985975405800027e-01  -5.5369461674792053e-01  -5.5691644538554064e-01  -4.2799618219916080e-01  -4.6945403183841217e-01  -4.7259924153227878e-01  -4.7105557093740591e-01  -4.8180657741821081e-01  -3.9525208410485535e-01  -4.2684192417897676e-01  -4.8606122969817050e-01  -4.9134316782085707e-01  -5.7945390545818731e-01  -4.2482521645557170e-01  -5.3325858434100637e-01  -5.2249956018106214e-01  -5.3179716542245226e-01  -4.4198764655577039e-01  -5.5937917494710943e-01  -5.8477769932774215e-01  -5.7649975031051126e-01  -5.7864347637911051e-01  -5.7171188440759946e-01  -5.9277795169040359e-01  -5.9943538190638568e-01  -4.9452788953670729e-01  -4.9288133859516964e-01  -5.7760457400258036e-01  -5.3005301359154622e-01  -4.1562459083120840e-01  -4.5889815262007350e-01  -4.8013538764417152e-01  -4.7700188917500475e-01  -4.9571262105159564e-01  -4.9982532896291626e-01  -4.8768112894056648e-01  -4.3909898892492660e-01  -4.2749442031997475e-01  -4.1167628925195665e-01  -5.4139128866281772e-01  -5.5700361608093285e-01  -4.9427923401256096e-01  -4.7981908436166754e-01  -5.2570215911302420e-01  -4.0578112106811687e-01  -3.9764057994364138e-01  -3.8225994133327779e-01  -4.0931993499731245e-01  -3.7695207522134311e-01  -3.6523704766600967e-01  -4.7557256080529148e-01  -4.9652158647328265e-01  -5.0223237943957844e-01  -4.4037828721557731e-01  -4.3008917651614947e-01  -4.5493078182539393e-01  -4.8616081285937462e-01  -4.7167893252216853e-01  -4.0735654361685025e-01  -5.1418891871268113e-01  -5.2382570259470085e-01  -4.6622040089459144e-01  -4.3255772242077428e-01  -5.1538612257386029e-01  -5.6973690435027824e-01  -5.9424399597978683e-01  -5.7827333331587283e-01  -5.5498611313283219e-01  -4.6436018001508750e-01  -4.4097525640704577e-01  -5.2118001531701874e-01  -5.4790955864348501e-01  -4.4512355411240923e-01  -5.5203797535127808e-01  -5.3826504782313700e-01  -3.6924401520672828e-01  -3.5586764466262572e-01  -3.8863579450309899e-01  -4.5317139118431077e-01  -3.9590359178554280e-01  -3.9694200291798237e-01  -4.0334024096193366e-01  -4.1081254200126771e-01  -4.4234867748274725e-01  -5.2163857482823894e-01  -4.7744107382271112e-01  -5.2007337208084692e-01  -5.4489576622588043e-01  -5.2389664979154016e-01  -3.9007827762442193e-01  -4.1548084413186448e-01  -4.0531062132374995e-01  -4.4173741056437676e-01  -4.6152495549205064e-01  -4.6882593631471831e-01  -5.6279573824675044e-01  -5.6372942750850341e-01  -4.7504289397086008e-01  -4.8015395068190359e-01  -5.1972341090154284e-01  -4.0212959484158167e-01  -4.7323961847553975e-01  -4.6628082510737501e-01  -5.8368024277189012e-01  -5.5485710953024070e-01  -5.5711080522185530e-01  -5.1280353746270957e-01  -5.1490988844825447e-01  -4.2621923283558499e-01  -4.0612886150052352e-01  -4.0390355619897617e-01  -4.6820368325780837e-01  -4.6295267783539512e-01  -4.7151384853782424e-01  -4.7878020913071612e-01  -4.7932575380944120e-01  -4.9109284263661052e-01  -4.9556184914140700e-01  -4.6294316609058411e-01  -4.6581955719101698e-01  -4.5687814977049634e-01  -4.4965893229264953e-01  -4.4964596339882967e-01  -4.4543112271512381e-01  -4.3887479664770035e-01  -4.5371729371522634e-01  -4.5820809242136834e-01  -5.0776103797471461e-01  -4.8237863628129130e-01  -4.9174860561408412e-01  -4.9462570416474749e-01  -4.8997331758059293e-01  -4.9469680314145265e-01  -4.6641634061858483e-01  -4.4909438874962526e-01  -5.0559311469425716e-01  -5.0190861099696438e-01  -4.6807543042920136e-01  -4.7420425666433930e-01  -4.7138976196569771e-01  -4.7892548922420541e-01  -4.8637621172043527e-01  -4.8526897900276461e-01  -4.7726625812615786e-01  -4.7597997765436539e-01  -4.8083849114568605e-01  -4.5929343316892951e-01  -4.8361440889362073e-01  -4.7437359843566518e-01  -4.8075844074365537e-01  -4.8238971707857070e-01  -4.8722360748340060e-01  -4.7969215752223410e-01  -4.7890310834924738e-01  -4.7009703156956478e-01  -4.7670582296472391e-01  -4.7127303555858391e-01  -4.6764715224756853e-01  -4.7577329723887929e-01  -4.7304281533763309e-01  -4.6850709680162556e-01  -4.7269471943256947e-01  -4.7273760623810152e-01  -4.8859695755891835e-01  -4.8273434787538699e-01  -4.8982979931076054e-01  -4.8227170322120699e-01  -4.9368204532459403e-01  -4.9797805133554846e-01  -5.0187051261176951e-01  -4.9479921687196771e-01  -4.8793251929504400e-01  -4.5022372529374999e-01  -4.6110757559377624e-01  -4.6380814369970463e-01  -4.7805623592301272e-01  -4.7846785302017142e-01  -4.8184345891672531e-01  -4.7892237068135052e-01  -4.7697875342402374e-01  -5.0713930901674742e-01  -4.9176847397429652e-01  -5.0498728917944580e-01  -4.9540318259833743e-01  -4.8688221757548961e-01  -4.7835102619996284e-01  -5.0723743472220528e-01  -4.9777224338160536e-01  -5.0093218993314115e-01  -4.5020996704110727e-01  -4.5971458356963235e-01  -4.6097477299808665e-01  -4.5256130871961198e-01  -4.7958749078862128e-01  -4.6687494474384111e-01  -4.5980369268724214e-01  -4.6446288517122392e-01  -4.5058337063055826e-01  -4.4365809735496914e-01  -4.7614879138090738e-01  -4.7376233248952726e-01  -4.7849254993951995e-01  -4.7615632753818427e-01  -4.8323096137978849e-01  -4.7920755969114098e-01  -4.6911783963506309e-01  -4.7041527400417343e-01  -5.0824609372209417e-01  -5.0809499505736211e-01  </DataArray> 
</PointData> 
</Piece>
</UnstructuredGrid>
</VTKFile>