<?xml version="1.0"?>
<VTKFile type="UnstructuredGrid"  version="0.1"  >
<UnstructuredGrid>
<Piece  NumberOfPoints="778" NumberOfCells="1401">
<Points>
<DataArray  type="Float64"  NumberOfComponents="3"  format="ascii">1 -1 0  6 -1 0  6 1 0  1 1 0  1 6 0  -1 6 0  -1 1 0  -6 1 0  -6 -1 0  -1 -1 0  -1 -6 0  1 -6 0  1 3.5 0  -1 3.5 0  -1 -3.5 0  1 -3.5 0  3.5 -1 0  3.5 1 0  -3.5 -1 0  -3.5 1 0  -1 -2.25 0  1 -2.25 0  2.25 -1 0  2.25 1 0  -1 2.25 0  1 2.25 0  -1 4.75 0  1 4.75 0  -4.75 -1 0  -4.75 1 0  -2.25 1 0  -2.25 -1 0  1 -4.75 0  -1 -4.75 0  4.75 1 0  4.75 -1 0  0 0 0  -2.875 0 0  -1.625 0 0  -4.125 0 0  -6 0 0  0 2.875 0  2.875 0 0  0 6 0  1.625 0 0  0 -2.875 0  0 -1.625 0  0 1.625 0  0 4.125 0  0 -6 0  0 -4.125 0  4.125 0 0  6 0 0  -0.109375 5.0625 0  -5.0625 -0.109375 0  -0.109375 -5.0625 0  5.0625 0.109375 0  0.8125 -0.1875 0  -0.1875 -0.8125 0  -0.8125 0.1875 0  -0.1875 0.8125 0  1 5.375 0  -5.375 1 0  1 -5.375 0  5.375 -1 0  0.53515625 0.46484375 0  -5.375 -1 0  -1 5.375 0  -1 -5.375 0  -0.5 -6 0  5.375 1 0  6 0.5 0  3.5 0.3046875 0  3.43125 -0.34765625 0  2.875 -1 0  4.125 1 0  0.3046875 3.5 0  -0.34765625 3.56875 0  -1 4.125 0  1 4.125 0  -0.3046875 2.25 0  0.34765625 2.18125 0  1 1.625 0  -1 -1.625 0  -0.3046875 -3.5 0  0.34765625 -3.56875 0  1 -4.125 0  0.3046875 -2.25 0  -0.34765625 -2.18125 0  -1 -4.125 0  -1 -2.875 0  1 -2.875 0  1 -1.625 0  1.625 -1 0  1.625 1 0  2.25 0.3046875 0  2.18125 -0.34765625 0  4.125 -1 0  2.875 1 0  1 2.875 0  -1 1.625 0  -1 2.875 0  -4.125 -1 0  -2.25 0.3046875 0  -2.31875 -0.34765625 0  -2.875 -1 0  -1.625 1 0  -4.125 1 0  -3.5 0.3046875 0  -3.56875 -0.34765625 0  -1.625 -1 0  -2.875 1 0  0.380626321794301 1.06853329530276 0  -1.110819327731092 -0.3739495798319328 0  0.3739495798319328 -1.110819327731092 0  1.151210293219304 0.3991939332620648 0  -0.5 -4.4375 0  0.5 -4.4375 0  5.481553398058253 -0.3712833737864077 0  0.5 4.4375 0  0.5 6 0  -0.522503783594538 -0.3265648647465863 0  -1.3125 0.5 0  -0.5 6 0  0.3265648647465863 -0.522503783594538 0  4.4375 0.5 0  4.4375 -0.5 0  0.5 -6 0  -6 -0.5 0  -5.481553398058253 0.3712833737864077 0  -4.55 -0.4296875 0  -4.4375 0.5 0  -0.5 4.4375 0  0.4792930825242718 5.026881067961165 0  0.4792930825242718 -5.026881067961165 0  -0.5 1.3125 0  1.3125 -0.5 0  -0.5 -1.3125 0  0.25 5.518539952962044 0  0.2125133872612723 -5.500076563152851 0  4.969341874373811 -0.5152550785163683 0  -4.969341874373811 0.5152550785163683 0  3.927189744345589 -0.4712876597840069 0  -5.554036458333333 -0.25 0  5.554036458333333 0.25 0  -0.4690710616438356 -5.462756849315069 0  -0.4690710616438356 5.462756849315069 0  -6 0.5 0  -1.59556436210848 -0.5 0  -3.058421751829955 -0.5 0  -0.5 2.731982421875 0  0.5 2.691578248170045 0  2.691578248170045 -0.5 0  1.641211254104555 0.5 0  0.5 -1.768017578125 0  0.5 -3.058421751829955 0  0.5 1.699267578125 0  3.018017578125 0.5 0  -0.5 -3.018017578125 0  -2.731982421875 0.5 0  6 -0.5 0  -4.050017120925308 -0.5006099332648871 0  -3.940668202764977 0.5371363767281105 0  3.940668202764977 0.5371363767281105 0  0.4517449476047904 3.958458083832335 0  -0.4517449476047904 -3.958458083832335 0  -1.809331797235023 0.5371363767281105 0  -0.4517449476047904 1.791541916167665 0  -0.0546875 4.59375 0  -5.006445312499999 -0.58984375 0  4.605643203883496 -0.04725424757281554 0  4.90625 0.5546875 0  -0.5546875 4.90625 0  0.04725424757281554 -4.605643203883496 0  -0.586116118210531 -4.995821561900013 0  -4.603710222472543 0.04846236095466061 0  -3.1875 0.65234375 0  0.6163907621110913 3.147502300973589 0  2.5625 0.65234375 0  0.6163907621110913 -2.602497699026411 0  -0.637456713551384 3.189259902731882 0  -0.637456713551384 -2.560740097268118 0  -0.34765625 0.34765625 0  -0.639453125 0.708203125 0  0.089630126953125 0.437286376953125 0  -0.4238281249999999 -1.746875 0  1.746875 -0.4238281249999999 0  -0.4238281249999999 4.003125 0  0.4238281249999999 -4.003125 0  -2.5625 -1 0  3.1875 -1 0  -0.09375 -1.21875 0  1.21875 -0.09375 0  0.4020305405760241 -0.1120343241705621 0  -0.6280191027904287 -0.7577505545748082 0  0.90625 -0.59375 0  -1.205500904741459 0.03633725387965409 0  -0.02129048848213058 1.202028574265107 0  -0.1120343241705621 -0.4020305405760241 0  1 1.3125 0  -2.003587563743074 -0.6442361556699288 0  0.6640077663259718 -1.395873598614549 0  5.6875 -1 0  0.6308138580859101 -5.592151086468728 0  -5.6875 -1 0  0.6568032075915271 5.612942566073222 0  5.616530031741774 0.6612875396772174 0  -5.6875 1 0  1.9375 1 0  -1.3125 -1 0  0.1524679547155687 -3.232579139388032 0  0.1524679547155687 2.517420860611968 0  -3.232579139388032 -0.1524679547155687 0  -1.932320553757026 -0.252759244693845 0  2.517420860611968 -0.1524679547155687 0  -0.04776045819569434 -2.464949198504599 0  -0.2420369079104247 3.187693796852321 0  3.751304711039982 -0.1203080877045035 0  -5.397601941771943 -0.609026059866711 0  1.3125 1 0  1.9375 -1 0  -0.6946315101963667 -2.018229242739021 0  -0.6946315101963667 3.731770757260979 0  1 -3.8125 0  2.014364435550335 0.6166648446293641 0  -1 5.6875 0  -1 -5.6875 0  -2.653476149871182 -0.5942957192996303 0  3.096523850128818 -0.5942957192996303 0  1 1.9375 0  -3.8125 -1 0  0.586975531244212 -0.7975955463807081 0  -0.2946248980953088 -4.743710873809568 0  2.625453376770019 0.2814788818359375 0  -3.124546623229981 0.2814788818359375 0  -0.1204856417894853 5.631800603217465 0  5.253862011026742 0.6581468962876398 0  -0.65234375 2.108701557941197 0  0.65234375 3.641298442058803 0  -0.65234375 -3.641298442058803 0  -0.25 -5.744880569758637 0  -4.4375 -1 0  -0.3166212631734941 -2.713595940002554 0  0.6591479224207506 0.1324305912687024 0  0.8660781906552419 0.6468634238104103 0  -0.9887189158197679 0.6452930723873549 0  0.3149351927204296 -1.460971774996065 0  -0.3572852727880474 -0.009629022788047503 0  2.09375 -0.6866724363772454 0  0.6866724363772454 -3.65625 0  0.6866724363772454 2.09375 0  -3.65625 -0.6866724363772454 0  -3.5371337890625 0.65234375 0  -0.1389584113023952 1.944025352615082 0  -2.151744288472698 0.65234375 0  -0.1389584113023951 -3.805974647384918 0  0.1389584113023951 3.805974647384918 0  -2.578772109813904 0.1857224367977529 0  3.171227890186096 0.1857224367977529 0  3.360315647536819 0.65234375 0  0.1857224367977528 -1.921227890186096 0  0.65234375 -2.110315647536819 0  1.894016528727564 0.2415406141485869 0  -3.738232421875 0 0  0.2516875549238616 3.139069895099618 0  -1.913724396854074 0.2011142179916434 0  0.1669456568161915 0.7843410671359501 0  -2.5625 1 0  -1 -3.1875 0  -1 2.5625 0  0.1736601499778735 4.857955663330752 0  -0.1893536587212888 2.577300639071919 0  -0.1893536587212888 -3.172699360928081 0  3.852271904453858 0.206603749322895 0  -3.8125 1 0  -0.1250095034621793 -5.421707592768541 0  3.8125 -1 0  3.617304217264373 -0.6578427703661498 0  0.2630176195580202 -2.636558318495885 0  0.2674330357770522 1.399517071108871 0  0.631726413079416 1.339254523727593 0  4.700571879807737 0.2813704945051134 0  0.7143844363649634 -3.319538455208831 0  2.430461544791169 -0.7143844363649634 0  0.7143844363649634 2.430461544791169 0  -3.319538455208831 -0.7143844363649634 0  5.687045771608623 -0.6520598572553891 0  -5.687045771608623 0.6520598572553891 0  -1.15625 -0.7048248829733235 0  3.438284572973296 -0.01860298867862281 0  -0.03021088078697859 3.451572359862192 0  2.216682837011589 -0.02159585961918548 0  -2.191580885932936 -0.03126387444658879 0  0.1857410764408683 1.895679405349457 0  3.103473238297955 -0.253270943723272 0  -2.646526761702045 -0.253270943723272 0  -2.333137350671861 -0.6791984914172315 0  -1 5.0625 0  -0.6971235589909319 5.213002544375844 0  0.01618705363819947 2.225929180591695 0  0.01618705363819947 -3.524070819408305 0  0.5690054882403073 0.7951310720450595 0  -0.5764940424412852 -3.329579265180942 0  -0.5764940424412852 2.420420734819058 0  3.8125 1 0  -5.372163860234628 0.04365139563106807 0  5.164108319316826 -0.225040894204947 0  -5.361952437854323 0.6744012088984681 0  -5.0625 1 0  5.286835586913878 -0.6616705837083201 0  -5.692815197359722 0.1186699900166531 0  5.663425996156958 -0.07763197815533956 0  -0.9219866027132193 -0.1143045829323572 0  -1.394333629759332 -0.2233077430199216 0  0.09322478991596644 -0.9616596638655462 0  5.0625 -1 0  -0.14412109375 -1.92169189453125 0  -4.28125 -0.7212148987671345 0  0.2649796277366407 0.1735162902120744 0  -4.907855692236596 0.1868230509619793 0  -1.9375 1 0  1 5.0625 0  0.6915124486819284 -5.272938212550202 0  0.683483242673902 5.284948082526911 0  2.5625 -1 0  -1 -3.8125 0  -1 1.9375 0  5.0625 1 0  -1 -1.9375 0  1 5.6875 0  1 -5.6875 0  -1.9375 -1 0  -1 -2.5625 0  -1 3.1875 0  1 -3.1875 0  1 -2.5625 0  1 2.5625 0  1 3.1875 0  -5.0625 -1 0  -1 -1.3125 0  1.3125 -1 0  -1 1.3125 0  -1 3.8125 0  -1 4.4375 0  -4.4375 1 0  4.4375 -1 0  4.4375 1 0  -1.3125 1 0  1 4.4375 0  1 -4.4375 0  -1 -5.0625 0  -1 -4.4375 0  -3.1875 1 0  2.5625 1 0  1 -1.9375 0  1 -1.3125 0  5.6875 1 0  1 3.8125 0  3.1875 1 0  -3.1875 -1 0  1 -5.0625 0  1.35138038998199 0.6675097549271188 0  -0.465625 0.986328125 0  1.435958105992309 0.2563920171199723 0  1.915914614192913 -0.145782394639918 0  -0.8764440609469509 -0.5746869313612541 0  5.355194559946098 0.01566259380337612 0  -5.69333042954964 -0.5242868300459975 0  1.78125 -0.7320750794491524 0  0.7320750794491525 -3.96875 0  -0.3959075548864684 5.166422468926435 0  -4.770522389068053 -0.2123670725088856 0  -4.714160156249999 -0.69234375 0  -4.273484403713342 -0.278160994327167 0  0.9642590244517505 0.08196089404241463 0  0.3500261717645397 -4.727285205957206 0  0.6740868006020392 -4.765147848348443 0  0.6797550207247084 -1.089747806381148 0  -5.186479934354063 0.3046329157552757 0  -5.263288238215326 -0.3369092276308425 0  -2.433484016245305 0.5442571297016638 0  0.1707808983307866 -3.82363304980935 0  -0.1554012991031027 3.867535742674252 0  4.855508096805579 -0.2283975605264581 0  3.644517238097614 0.5646428152488787 0  0.05699603874439441 -0.6452791208413911 0  -0.3550018917972689 -0.5695324323732931 0  0.6
[...]
<PointData  Scalars="u"> 
<DataArray  type="Float64"  Name="u"  format="ascii">-3.1991135266811249e-01  0.0000000000000000e+00  0.0000000000000000e+00  -3.1581630761212576e-01  -6.3003081517126924e-01  -6.3003081517126924e-01  -3.1643197337700912e-01  0.0000000000000000e+00  0.0000000000000000e+00  -3.1622484675993023e-01  -6.3003081517126924e-01  -6.3003081517126924e-01  -4.8237740274005753e-01  -4.8272798243981774e-01  -4.8235453700488462e-01  -4.8262547207466872e-01  -1.4738607493684289e-01  -1.4809645774041413e-01  -1.4749056771268701e-01  -1.4817145109364693e-01  -4.0892519423551932e-01  -4.0934281457146304e-01  -2.2119168540688217e-01  -2.2113147035105749e-01  -4.0924121670610597e-01  -4.0910233722714900e-01  -5.5598737209062699e-01  -5.5632926009201800e-01  -7.4029744654887805e-02  -7.3834564430705157e-02  -2.2140990624170481e-01  -2.2157593902669234e-01  -5.5664727654432000e-01  -5.5656071600413137e-01  -7.4218247265546586e-02  -7.3614053917938654e-02  -3.1320774691266795e-01  -1.8432775069404261e-01  -2.5742767879264478e-01  -1.1065258793822308e-01  0.0000000000000000e+00  -4.4582682244708471e-01  -1.8422554086359033e-01  -6.3003081517126924e-01  -2.5722189007003854e-01  -4.4583961956206508e-01  -3.7242747982672086e-01  -3.7240541456495441e-01  -5.1950704483191223e-01  -6.3003081517126924e-01  -5.1952443784386459e-01  -1.1053735229408188e-01  0.0000000000000000e+00  -5.7477372541394134e-01  -5.5348814324115606e-02  -5.7478810707118122e-01  -5.5274762959781627e-02  -2.9820845706845128e-01  -3.2957123317449344e-01  -2.9832574284078039e-01  -3.2955423513005244e-01  -5.9322308767593923e-01  -3.6490084391793159e-02  -5.9303830141612124e-01  -3.6538538759529920e-02  -3.1188232391599330e-01  -3.7641670836788134e-02  -5.9333207912286212e-01  -5.9312378310001190e-01  -6.3003081517126924e-01  -3.6816444366062621e-02  0.0000000000000000e+00  -1.4745645765239035e-01  -1.5146668603469782e-01  -1.8445618033429712e-01  -1.1035415974844479e-01  -4.8265197678204053e-01  -4.8672001591818226e-01  -5.1944483992728485e-01  -5.1950825758766761e-01  -4.0897495104046855e-01  -4.0491918835403568e-01  -3.7203243041112871e-01  -3.7159058653366944e-01  -4.8265753306720138e-01  -4.8672802012042271e-01  -5.1945947812378335e-01  -4.0901047898837828e-01  -4.0494069148830047e-01  -5.1914556556672820e-01  -4.4594066220419221e-01  -4.4616328670974703e-01  -3.7191430574266482e-01  -2.5869455775462624e-01  -2.5851662044478474e-01  -2.2102662270212475e-01  -2.2507656234991091e-01  -1.1072184368839390e-01  -1.8401831697529641e-01  -4.4554877906422313e-01  -3.7204286141105669e-01  -4.4564188356944545e-01  -1.1081554746122245e-01  -2.2120299646690303e-01  -2.1713164360917644e-01  -1.8417333761551935e-01  -2.5908670841927461e-01  -1.1103479693897754e-01  -1.4753647973381739e-01  -1.4345237021256599e-01  -2.5866854369177938e-01  -1.8420834216602511e-01  -3.3987277372252361e-01  -2.8670835657275912e-01  -3.4238245415629187e-01  -2.8483268838953257e-01  -5.3798985764023788e-01  -5.3794129605236007e-01  -3.0609291711113266e-02  -5.3792590625229286e-01  -6.3003081517126924e-01  -3.0941008169627637e-01  -2.7679203496269583e-01  -6.3003081517126924e-01  -3.1777231013770413e-01  -9.2119560501404379e-02  -9.2103539213640048e-02  -6.3003081517126924e-01  0.0000000000000000e+00  -3.0603113268267531e-02  -8.5629584355359820e-02  -9.2263259781455040e-02  -5.3789625654612994e-01  -5.7265691229925642e-01  -5.7269373691618786e-01  -3.5323225246707590e-01  -2.7650598557450839e-01  -3.5308310777631624e-01  -6.0166390084261157e-01  -6.0058279102060719e-01  -6.0805815111291392e-02  -6.0815764427928083e-02  -1.2219762164109346e-01  -2.6342039424799481e-02  -2.6301278996715298e-02  -5.9834341778958389e-01  -5.9835148060276011e-01  0.0000000000000000e+00  -2.6004270672048690e-01  -1.7351779243189591e-01  -4.3741546644156015e-01  -4.3502716517780188e-01  -1.9504656496355749e-01  -2.5704839656613560e-01  -3.8042974799422674e-01  -4.5665632855404809e-01  -3.7634305156039149e-01  -1.7579122549704684e-01  -4.5426140754989508e-01  -1.9273605287041817e-01  0.0000000000000000e+00  -1.1507668713411402e-01  -1.2166454539744012e-01  -1.2156280798456445e-01  -5.0972265018690754e-01  -5.0969839972534503e-01  -2.4728671834872554e-01  -3.8180333593133997e-01  -5.4713789058267626e-01  -5.8786264621163369e-02  -8.2208337657451766e-02  -6.4504191728097265e-02  -5.6559112789989996e-01  -5.4786412494631753e-01  -5.7086669571002802e-01  -8.2405806795142644e-02  -1.6583883905184518e-01  -4.6192944894194138e-01  -2.0265265024377985e-01  -4.2981381205081226e-01  -4.6434541139554486e-01  -4.2737493742157295e-01  -3.1356678408147270e-01  -3.1675207983860582e-01  -3.1802296247080575e-01  -3.7923804199522620e-01  -2.5068366358098304e-01  -5.1233838597540204e-01  -5.1235132195651611e-01  -2.0251909053687572e-01  -1.6589554746349983e-01  -3.4961434002940706e-01  -2.7929933369325943e-01  -3.0958665095671434e-01  -3.1870506010860250e-01  -3.0138443483697069e-01  -2.8003303784641037e-01  -3.4869868059883163e-01  -3.1715795563616428e-01  -3.5522269410362056e-01  -2.3584042169346731e-01  -3.5734828391026113e-01  -1.8966089966288537e-02  -6.0602188460331119e-01  -1.8135820039663093e-02  -6.0722885463305276e-01  -2.2638644647968487e-02  -1.9135523630402364e-02  -2.3944553037230093e-01  -2.7739642398681602e-01  -4.6691030524075405e-01  -4.2474989652583117e-01  -1.6326238276345825e-01  -2.3983069039201019e-01  -2.0527991571957627e-01  -4.2168763898440015e-01  -4.6427208101422140e-01  -1.3256180968339046e-01  -3.5627907878255073e-02  -2.7765259653029428e-01  -2.3973980778035628e-01  -3.9526658093442918e-01  -4.9635892502046525e-01  -5.0123254911441817e-01  -2.3508219257534541e-01  -6.1117246787961466e-01  -6.1120514270917292e-01  -1.9744984834211407e-01  -1.7120721220135759e-01  -3.9034711362906654e-01  -1.2895165352296151e-01  -3.2197705573256546e-01  -5.5600396783270822e-01  -1.9894025238342655e-01  -1.6965353767396982e-01  -6.0832994136147756e-01  -4.4041188268653539e-02  -4.0069146176974396e-01  -4.9104929699693800e-01  -4.9096215589561787e-01  -6.1497806856740711e-01  -9.2031837210129100e-02  -4.3636143579995051e-01  -3.0324807501786671e-01  -3.0400931276111903e-01  -2.9789651887639162e-01  -3.6258313268271775e-01  -3.1020677734089463e-01  -2.3035851160613960e-01  -4.9189986191898960e-01  -3.9977538261163981e-01  -1.3831698507191825e-01  -1.4542375292193169e-01  -3.9099286909405495e-01  -2.2690342462735597e-01  -5.0070300361844289e-01  -5.0070220732019854e-01  -2.0174725419924050e-01  -1.6676237470791122e-01  -1.5546696316094635e-01  -3.8965663344101392e-01  -4.0078698971871046e-01  -2.4188002902892472e-01  -1.3345435649968962e-01  -4.6139973956978070e-01  -2.4084112035491620e-01  -3.2854417007435310e-01  -2.0227202788292195e-01  -4.6398083770578619e-01  -4.2767343031323524e-01  -5.6271754658363982e-01  -4.2830069820155708e-01  -4.6336230384679661e-01  -1.2657718356689718e-01  -1.2877263480204101e-01  -5.9594367801590065e-01  -1.2878868816619019e-01  -1.4047008138626341e-01  -4.3178945552366255e-01  -3.5921601331379538e-01  -3.5339834450279289e-01  -7.6655464755244984e-02  -4.7211325069354121e-01  -2.1048277701177739e-01  -4.1955480320213784e-01  -1.5811048539348421e-01  -1.8577108918326622e-02  -1.8596156860906401e-02  -2.8855792908544659e-01  -1.5102873895339988e-01  -4.7980918230554342e-01  -2.2294106674209971e-01  -2.2456308511064343e-01  -3.8813530177343059e-01  -1.7075955627994233e-01  -1.9780157207015492e-01  -2.1644805077337911e-01  -5.7528522690388817e-01  -5.8347477211414822e-01  -4.0756912136372880e-01  -4.8409083088913168e-01  -3.2201045988508442e-01  -4.7269921527322128e-01  -4.1897921889286616e-01  -1.2842394262964149e-01  -3.7070405545480238e-02  -4.9301762975306966e-02  -3.7550843626900594e-02  -5.5251679969500575e-02  -4.2042900945207677e-02  -1.8129238791618978e-02  -1.9838233335082004e-02  -2.9356975147079983e-01  -2.7057251194710630e-01  -3.3661267903209757e-01  -5.5629633345261283e-02  -3.8968433900549393e-01  -1.0142274632393500e-01  -3.1232875909415925e-01  -6.4463643200851128e-02  -2.3985348667877696e-01  -5.7463530759678672e-01  -5.8728241529938030e-01  -5.8797579353339091e-01  -2.0245057050477638e-01  -5.0163968902413203e-01  -3.9014066947538101e-01  -5.5045769623999007e-02  -3.9037645333738741e-01  -6.1192741906144765e-01  -6.1202962369135194e-01  -2.4015630864963192e-01  -4.2789687830719991e-01  -4.6397135640405057e-01  -4.6422526297314404e-01  -4.2698928983008622e-01  -4.2742214515318178e-01  -4.6479229078503120e-01  -5.5486559765762750e-02  -3.5568107423668005e-01  -2.8006696120666308e-01  -3.5588470543464512e-01  -5.0138425122388142e-01  -5.3773407110594018e-01  -9.2028107837604539e-02  -9.2003122537636053e-02  -9.2170879552830348e-02  -2.7726134413891462e-01  -5.3790268324189205e-01  -5.3785175783190631e-01  -5.7529900624004826e-01  -5.3777591512139111e-01  -1.6582458373100595e-01  -2.0269508623859930e-01  -3.9036167974225011e-01  -3.5501312329483076e-01  -1.8089457653090706e-02  -5.0129479485298789e-01  -1.6607076868779749e-01  -1.6607836959977373e-01  -5.7457920357109660e-01  -2.7598082448353994e-01  -3.3432689305996371e-01  -2.6819875071595811e-01  -2.4053875252168141e-01  -3.0285009274066205e-01  -3.8024785541927168e-02  -1.8244466113031602e-02  -2.4898517641021284e-01  -5.1026004327943053e-01  -5.8099873210829711e-01  -7.2584916145233339e-02  -7.5889385618419444e-02  -1.0189072689297829e-01  -2.9149192319747813e-01  -5.5502217236782325e-01  -5.5730204731938637e-01  -3.3805927950021075e-01  -4.8014818688377106e-02  -4.3569844686454771e-02  -2.1045398179552327e-01  -5.0174985235058145e-01  -5.0433268471745041e-01  -6.7469011837742565e-02  -1.3888506586051644e-01  -3.2398839263958135e-01  -3.1871674409407935e-01  -3.0850994762777800e-01  -3.1464510545644514e-01  -1.2204923225320614e-01  -5.6557250177867091e-01  -5.8190666106723532e-01  -5.8156019822799732e-01  -5.5520240927729958e-01  -5.2871602767311765e-01  -8.2766412430160002e-02  -8.2928750572274015e-02  -2.6829470813929790e-01  -2.8936601403411766e-01  -6.1354235567740611e-01  -3.6060129326460244e-01  -3.3581436744466980e-01  -2.6632293262004125e-01  -3.3776756647543449e-01  -3.6318992019538943e-01  -5.2715948926442546e-01  -5.2713531295659444e-01  -2.8861260839537256e-01  -3.6858407028875989e-01  -9.7643242709229555e-02  -5.5325251611766046e-01  -5.3490185474176066e-01  -5.5963829475989002e-01  -5.2869389003530043e-01  -5.5057166136542934e-01  -5.3478201217718058e-01  -3.4035745167498049e-01  -3.6210195885887342e-01  -2.6839998372038676e-01  -2.6327544009946968e-01  -5.2259397711459143e-01  -9.5148007127324907e-02  -1.0595103448795015e-01  -9.7449821350661714e-02  -1.0607545345173823e-01  -1.0783503379984599e-01  -7.6837168015787730e-02  -6.1355395219934417e-01  -5.4712880045506018e-01  -5.2874607437941568e-01  -4.3588282910633672e-02  -6.1454857125243301e-01  -2.7057975110516130e-01  -2.8896647944729714e-01  -3.0356991766219299e-01  -1.3032522673179242e-01  -2.9870037537527666e-01  -5.1019773221344489e-01  -3.8119434442473793e-01  -5.9147739394534926e-01  -5.6420807213263724e-01  -1.0730862926559459e-01  0.0000000000000000e+00  -7.6303809544709542e-02  -5.8386632205491429e-01  -1.1366054764193805e-01  -4.0410874391184837e-01  -3.8128258567731160e-01  -1.2238316951993025e-01  -5.1228577892218707e-01  -6.3003081517126924e-01  -1.5646668935298133e-01  -2.1917451434807414e-01  -3.0419831321323343e-01  -3.3662438816810236e-01  -2.5002005504586761e-01  -4.8067107048980068e-01  -4.1107494470383882e-01  -6.1344150859347912e-01  -6.1569546790734275e-01  -6.1472032641559238e-01  -1.2518054000212572e-01  -1.3943746073542278e-02  -5.8493568876466051e-01  -6.1447803595092143e-01  -5.0646021836568067e-01  -1.4635063100731746e-02  -4.2079262643989707e-01  -4.3661670614964454e-01  -4.5497715811063733e-01  -4.4790997061679350e-01  -4.4500939116757743e-01  -1.8555051976394193e-01  -1.9054556812626716e-01  -1.8297400355582238e-01  -1.7801056925225084e-01  -1.5808899354815900e-01  -2.1046066815024103e-01  -4.7208475279920131e-01  -4.2026062876151365e-01  -6.7175366617988286e-02  -7.6345558445396283e-02  -5.9024515700496338e-01  -1.5014886263049024e-01  -1.7015513385721895e-01  -1.8663061649729515e-01  -4.3119432176158579e-01  -4.6040697787295276e-01  -1.9350209130262569e-01  -3.8138689498591394e-01  -4.4775330755517617e-01  -4.7331018969658117e-01  -4.1817567576235848e-01  -3.2760686727759120e-01  -4.4776861163072523e-01  -1.8528317132520322e-01  -1.8327702120382328e-01  -4.4332455184729341e-01  -2.4912878195889443e-01  -6.3003081517126924e-01  -4.5772041827444113e-02  0.0000000000000000e+00  -1.3219560280154108e-02  -1.4963367299561525e-02  0.0000000000000000e+00  -1.1270299549204869e-01  -1.3677070837298771e-01  -5.9891969865900685e-01  -4.1437262918771384e-01  -4.7743663855479684e-01  -2.1059165568275770e-01  -5.9874490890545007e-01  -5.7201063194634449e-01  -2.0874494395559598e-01  -3.9086856906094475e-01  -1.2962511118790948e-01  -3.0683301363829119e-01  -5.2437006319706514e-01  -3.9567824206733537e-01  -1.6081544676695847e-01  -3.7380048220022349e-01  -5.2437938222804370e-01  -3.4629244615549715e-01  -2.7539081677327831e-01  -2.5646877423548331e-01  -5.8978688758129894e-01  -3.0475990302655570e-01  -3.6071020600505665e-01  -3.5613126521695537e-01  -3.4649628119998033e-01  -2.8793521551652090e-01  -3.6032486696739435e-01  -2.4865727631290493e-01  -2.4028422330765845e-01  -3.1971912136798114e-01  -3.1958921402617885e-01  -3.0082630216083134e-01  -2.9550018868149586e-01  -2.8959472161911737e-01  -2.5517991174546667e-01  -3.7616033506773766e-01  -2.9463989981746874e-01  -2.9050276173996314e-01  -3.3113405833000908e-01  -3.2639450739370629e-01  -3.2060025212419868e-01  -2.9882592383264284e-01  -3.3454915289049075e-01  -3.3226661815996472e-01  -3.1307310735213362e-01  -3.1432965259503121e-01  -3.1303792613155768e-01  -2.9693894689977218e-01  -3.1329971819252544e-01  -3.0858371549173275e-01  -3.1200645921279874e-01  -3.1621715419727014e-01  -3.2039633577020232e-01  -3.6320828915456171e-01  -2.8380073133823774e-01  -3.7951001904431469e-01  -3.9055857918021558e-01  -2.7809716411410623e-01  -2.6847270294733039e-01  -2.4062785082370183e-01  -2.3787480818913831e-01  -3.5020755935892550e-01  -2.5205818890972143e-01  -2.4971410452244078e-01  -2.4805744935497587e-01  -3.6571569829713768e-01  -3.6793140082753584e-01  -2.7983664232086514e-01  -3.0726402107056044e-01  -3.0940360810538192e-01  -3.0898919791973078e-01  -3.1658182133875418e-01  -2.5822222639023118e-01  -2.7907215195917867e-01  -3.1857988802710735e-01  -3.2229815598672829e-01  -3.8230173475156309e-01  -2.7775810348451940e-01  -3.5142995696227047e-01  -3.4467614468170671e-01  -3.5139184116828120e-01  -2.8854487798399076e-01  -3.6943939992037678e-01  -3.8597989838860386e-01  -3.8023721293316098e-01  -3.8164404108375738e-01  -3.7707774861532450e-01  -3.9117408594699832e-01  -3.9544973902349628e-01  -3.2532337466283923e-01  -3.2332090998481083e-01  -3.8098036896534121e-01  -3.4967182300451283e-01  -2.7157272363500307e-01  -3.0028883884351643e-01  -3.1441724762902751e-01  -3.1227699916657375e-01  -3.2558378126802917e-01  -3.2846818882216322e-01  -3.2120774223148307e-01  -2.8727507077495401e-01  -2.7938220014397558e-01  -2.6908760444595425e-01  -3.5692453555959969e-01  -3.6751308194980253e-01  -3.2455847135098476e-01  -3.1420223034354783e-01  -3.4660464910526234e-01  -2.6502208173792902e-01  -2.5961343232241280e-01  -2.4971632091373550e-01  -2.6718844934656444e-01  -2.4609297933879101e-01  -2.3848624545958344e-01  -3.1176857937423763e-01  -3.2592952253919383e-01  -3.2987319200830828e-01  -2.8806151004333730e-01  -2.8119135638794146e-01  -2.9765178754803018e-01  -3.1974968749674193e-01  -3.0921878400011804e-01  -2.6612616984728482e-01  -3.3813003708187411e-01  -3.4485140133309006e-01  -3.0530229822593791e-01  -2.8287255864986649e-01  -3.3901245378363637e-01  -3.7580181762475229e-01  -3.9208280893060199e-01  -3.8183681812490350e-01  -3.6626902524755445e-01  -3.0375248704669877e-01  -2.8508447203748721e-01  -3.4332924125818154e-01  -3.6221223983452533e-01  -2.9071020676644632e-01  -3.6500123116805189e-01  -3.5465964385528498e-01  -2.4117859911685885e-01  -2.3239887458974359e-01  -2.5388980329620398e-01  -2.9650087224736904e-01  -2.5847348443507112e-01  -2.5927961573403541e-01  -2.6351326932702479e-01  -2.6770746906224913e-01  -2.8930953865540820e-01  -3.4667682596278648e-01  -3.1269349060094137e-01  -3.4627869086799262e-01  -3.6042677683265911e-01  -3.4908181344307387e-01  -2.5483195905729977e-01  -2.7125465836868240e-01  -2.6453874415447548e-01  -2.8903608959897581e-01  -3.0206583413009969e-01  -3.0696930684072188e-01  -3.7179674891956732e-01  -3.7218829954075322e-01  -3.1100124214018371e-01  -3.1472314175141647e-01  -3.4563294019481861e-01  -2.6253621760089663e-01  -3.0998388018640322e-01  -3.0526494002197457e-01  -3.8510151928654479e-01  -3.6583357513892290e-01  -3.6751056371191249e-01  -3.3729432376356561e-01  -3.3862886778498447e-01  -2.7869008651087535e-01  -2.6535079570060727e-01  -2.6393732190888186e-01  -3.0644995370541578e-01  -3.0301051544465885e-01  -3.0871837448089573e-01  -3.1378701455144975e-01  -3.1439096138167444e-01  -3.2224698978199601e-01  -3.2561219010808196e-01  -3.0298361677562546e-01  -3.0484393633522688e-01  -2.9891917148792146e-01  -2.9417078520340673e-01  -2.9416256288719089e-01  -2.9136151121395765e-01  -2.8704521328673088e-01  -2.9684879658622032e-01  -2.9980883964415717e-01  -3.3381494186635280e-01  -3.1643196632972720e-01  -3.2256805029335534e-01  -3.2469345281583945e-01  -3.2165170136785065e-01  -3.2503684100727437e-01  -3.0550215723960328e-01  -2.9380847596657667e-01  -3.3226624062447763e-01  -3.2989795910422504e-01  -3.0656951337999544e-01  -3.1109752570114962e-01  -3.0933109360226962e-01  -3.1378638405344406e-01  -3.1912922224009072e-01  -3.1807595550529588e-01  -3.1244976608214331e-01  -3.1171928357080564e-01  -3.1495262765073145e-01  -3.0059485464071922e-01  -3.1686263395119030e-01  -3.1049431119013188e-01  -3.1491740629279846e-01  -3.1626090884338165e-01  -3.1947593270684294e-01  -3.1434318617131218e-01  -3.1367878967525975e-01  -3.0777474443351532e-01  -3.1219131172250314e-01  -3.0846366424565708e-01  -3.0610810688319245e-01  -3.1149063776979485e-01  -3.0968063706645010e-01  -3.0666418661773681e-01  -3.0976656695635468e-01  -3.0970415528783152e-01  -3.2034873385591472e-01  -3.1625363307774607e-01  -3.2126113829731628e-01  -3.1598345652723292e-01  -3.2400647465194038e-01  -3.2692730721524982e-01  -3.2957338543606324e-01  -3.2474258271851780e-01  -3.1989187289781629e-01  -2.9452489276419286e-01  -3.0173644947361300e-01  -3.0354801751859262e-01  -3.1297722610723483e-01  -3.1326464765680229e-01  -3.1561017182190082e-01  -3.1358639248288195e-01  -3.1229959006929814e-01  -3.3341016450755856e-01  -3.2303886201528664e-01  -3.3194163688872680e-01  -3.2567206989738767e-01  -3.1942501104997062e-01  -3.1317623468171751e-01  -3.3335210577204805e-01  -3.2677621766073378e-01  -3.2901886792742480e-01  -2.9454857018597491e-01  -3.0085955353347194e-01  -3.0167488832376188e-01  -2.9607909948754124e-01  -3.1486976625706919e-01  -3.0576143560222313e-01  -3.0120799153807515e-01  -3.0411743373657002e-01  -2.9481861711794438e-01  -2.9025382531740779e-01  -3.1191460102631030e-01  -3.1021993044955992e-01  -3.1333238382612388e-01  -3.1171925068640505e-01  -3.1672077470766846e-01  -3.1401190710038279e-01  -3.0723498429609830e-01  -3.0800500353658034e-01  -3.3400160901126053e-01  -3.3393265697051810e-01  </DataArray> 
</PointData> 
</Piece>
</UnstructuredGrid>
</VTKFile>