<?xml version="1.0"?>
<VTKFile type="UnstructuredGrid"  version="0.1"  >
<UnstructuredGrid>
<Piece  NumberOfPoints="778" NumberOfCells="1401">
<Points>
<DataArray  type="Float64"  NumberOfComponents="3"  format="ascii">1 -1 0  6 -1 0  6 1 0  1 1 0  1 6 0  -1 6 0  -1 1 0  -6 1 0  -6 -1 0  -1 -1 0  -1 -6 0  1 -6 0  1 3.5 0  -1 3.5 0  -1 -3.5 0  1 -3.5 0  3.5 -1 0  3.5 1 0  -3.5 -1 0  -3.5 1 0  -1 -2.25 0  1 -2.25 0  2.25 -1 0  2.25 1 0  -1 2.25 0  1 2.25 0  -1 4.75 0  1 4.75 0  -4.75 -1 0  -4.75 1 0  -2.25 1 0  -2.25 -1 0  1 -4.75 0  -1 -4.75 0  4.75 1 0  4.75 -1 0  0 0 0  -2.875 0 0  -1.625 0 0  -4.125 0 0  -6 0 0  0 2.875 0  2.875 0 0  0 6 0  1.625 0 0  0 -2.875 0  0 -1.625 0  0 1.625 0  0 4.125 0  0 -6 0  0 -4.125 0  4.125 0 0  6 0 0  -0.109375 5.0625 0  -5.0625 -0.109375 0  -0.109375 -5.0625 0  5.0625 0.109375 0  0.8125 -0.1875 0  -0.1875 -0.8125 0  -0.8125 0.1875 0  -0.1875 0.8125 0  1 5.375 0  -5.375 1 0  1 -5.375 0  5.375 -1 0  0.53515625 0.46484375 0  -5.375 -1 0  -1 5.375 0  -1 -5.375 0  -0.5 -6 0  5.375 1 0  6 0.5 0  3.5 0.3046875 0  3.43125 -0.34765625 0  2.875 -1 0  4.125 1 0  0.3046875 3.5 0  -0.34765625 3.56875 0  -1 4.125 0  1 4.125 0  -0.3046875 2.25 0  0.34765625 2.18125 0  1 1.625 0  -1 -1.625 0  -0.3046875 -3.5 0  0.34765625 -3.56875 0  1 -4.125 0  0.3046875 -2.25 0  -0.34765625 -2.18125 0  -1 -4.125 0  -1 -2.875 0  1 -2.875 0  1 -1.625 0  1.625 -1 0  1.625 1 0  2.25 0.3046875 0  2.18125 -0.34765625 0  4.125 -1 0  2.875 1 0  1 2.875 0  -1 1.625 0  -1 2.875 0  -4.125 -1 0  -2.25 0.3046875 0  -2.31875 -0.34765625 0  -2.875 -1 0  -1.625 1 0  -4.125 1 0  -3.5 0.3046875 0  -3.56875 -0.34765625 0  -1.625 -1 0  -2.875 1 0  0.380626321794301 1.06853329530276 0  -1.110819327731092 -0.3739495798319328 0  0.3739495798319328 -1.110819327731092 0  1.151210293219304 0.3991939332620648 0  -0.5 -4.4375 0  0.5 -4.4375 0  5.481553398058253 -0.3712833737864077 0  0.5 4.4375 0  0.5 6 0  -0.522503783594538 -0.3265648647465863 0  -1.3125 0.5 0  -0.5 6 0  0.3265648647465863 -0.522503783594538 0  4.4375 0.5 0  4.4375 -0.5 0  0.5 -6 0  -6 -0.5 0  -5.481553398058253 0.3712833737864077 0  -4.55 -0.4296875 0  -4.4375 0.5 0  -0.5 4.4375 0  0.4792930825242718 5.026881067961165 0  0.4792930825242718 -5.026881067961165 0  -0.5 1.3125 0  1.3125 -0.5 0  -0.5 -1.3125 0  0.25 5.518539952962044 0  0.2125133872612723 -5.500076563152851 0  4.969341874373811 -0.5152550785163683 0  -4.969341874373811 0.5152550785163683 0  3.927189744345589 -0.4712876597840069 0  -5.554036458333333 -0.25 0  5.554036458333333 0.25 0  -0.4690710616438356 -5.462756849315069 0  -0.4690710616438356 5.462756849315069 0  -6 0.5 0  -1.59556436210848 -0.5 0  -3.058421751829955 -0.5 0  -0.5 2.731982421875 0  0.5 2.691578248170045 0  2.691578248170045 -0.5 0  1.641211254104555 0.5 0  0.5 -1.768017578125 0  0.5 -3.058421751829955 0  0.5 1.699267578125 0  3.018017578125 0.5 0  -0.5 -3.018017578125 0  -2.731982421875 0.5 0  6 -0.5 0  -4.050017120925308 -0.5006099332648871 0  -3.940668202764977 0.5371363767281105 0  3.940668202764977 0.5371363767281105 0  0.4517449476047904 3.958458083832335 0  -0.4517449476047904 -3.958458083832335 0  -1.809331797235023 0.5371363767281105 0  -0.4517449476047904 1.791541916167665 0  -0.0546875 4.59375 0  -5.006445312499999 -0.58984375 0  4.605643203883496 -0.04725424757281554 0  4.90625 0.5546875 0  -0.5546875 4.90625 0  0.04725424757281554 -4.605643203883496 0  -0.586116118210531 -4.995821561900013 0  -4.603710222472543 0.04846236095466061 0  -3.1875 0.65234375 0  0.6163907621110913 3.147502300973589 0  2.5625 0.65234375 0  0.6163907621110913 -2.602497699026411 0  -0.637456713551384 3.189259902731882 0  -0.637456713551384 -2.560740097268118 0  -0.34765625 0.34765625 0  -0.639453125 0.708203125 0  0.089630126953125 0.437286376953125 0  -0.4238281249999999 -1.746875 0  1.746875 -0.4238281249999999 0  -0.4238281249999999 4.003125 0  0.4238281249999999 -4.003125 0  -2.5625 -1 0  3.1875 -1 0  -0.09375 -1.21875 0  1.21875 -0.09375 0  0.4020305405760241 -0.1120343241705621 0  -0.6280191027904287 -0.7577505545748082 0  0.90625 -0.59375 0  -1.205500904741459 0.03633725387965409 0  -0.02129048848213058 1.202028574265107 0  -0.1120343241705621 -0.4020305405760241 0  1 1.3125 0  -2.003587563743074 -0.6442361556699288 0  0.6640077663259718 -1.395873598614549 0  5.6875 -1 0  0.6308138580859101 -5.592151086468728 0  -5.6875 -1 0  0.6568032075915271 5.612942566073222 0  5.616530031741774 0.6612875396772174 0  -5.6875 1 0  1.9375 1 0  -1.3125 -1 0  0.1524679547155687 -3.232579139388032 0  0.1524679547155687 2.517420860611968 0  -3.232579139388032 -0.1524679547155687 0  -1.932320553757026 -0.252759244693845 0  2.517420860611968 -0.1524679547155687 0  -0.04776045819569434 -2.464949198504599 0  -0.2420369079104247 3.187693796852321 0  3.751304711039982 -0.1203080877045035 0  -5.397601941771943 -0.609026059866711 0  1.3125 1 0  1.9375 -1 0  -0.6946315101963667 -2.018229242739021 0  -0.6946315101963667 3.731770757260979 0  1 -3.8125 0  2.014364435550335 0.6166648446293641 0  -1 5.6875 0  -1 -5.6875 0  -2.653476149871182 -0.5942957192996303 0  3.096523850128818 -0.5942957192996303 0  1 1.9375 0  -3.8125 -1 0  0.586975531244212 -0.7975955463807081 0  -0.2946248980953088 -4.743710873809568 0  2.625453376770019 0.2814788818359375 0  -3.124546623229981 0.2814788818359375 0  -0.1204856417894853 5.631800603217465 0  5.253862011026742 0.6581468962876398 0  -0.65234375 2.108701557941197 0  0.65234375 3.641298442058803 0  -0.65234375 -3.641298442058803 0  -0.25 -5.744880569758637 0  -4.4375 -1 0  -0.3166212631734941 -2.713595940002554 0  0.6591479224207506 0.1324305912687024 0  0.8660781906552419 0.6468634238104103 0  -0.9887189158197679 0.6452930723873549 0  0.3149351927204296 -1.460971774996065 0  -0.3572852727880474 -0.009629022788047503 0  2.09375 -0.6866724363772454 0  0.6866724363772454 -3.65625 0  0.6866724363772454 2.09375 0  -3.65625 -0.6866724363772454 0  -3.5371337890625 0.65234375 0  -0.1389584113023952 1.944025352615082 0  -2.151744288472698 0.65234375 0  -0.1389584113023951 -3.805974647384918 0  0.1389584113023951 3.805974647384918 0  -2.578772109813904 0.1857224367977529 0  3.171227890186096 0.1857224367977529 0  3.360315647536819 0.65234375 0  0.1857224367977528 -1.921227890186096 0  0.65234375 -2.110315647536819 0  1.894016528727564 0.2415406141485869 0  -3.738232421875 0 0  0.2516875549238616 3.139069895099618 0  -1.913724396854074 0.2011142179916434 0  0.1669456568161915 0.7843410671359501 0  -2.5625 1 0  -1 -3.1875 0  -1 2.5625 0  0.1736601499778735 4.857955663330752 0  -0.1893536587212888 2.577300639071919 0  -0.1893536587212888 -3.172699360928081 0  3.852271904453858 0.206603749322895 0  -3.8125 1 0  -0.1250095034621793 -5.421707592768541 0  3.8125 -1 0  3.617304217264373 -0.6578427703661498 0  0.2630176195580202 -2.636558318495885 0  0.2674330357770522 1.399517071108871 0  0.631726413079416 1.339254523727593 0  4.700571879807737 0.2813704945051134 0  0.7143844363649634 -3.319538455208831 0  2.430461544791169 -0.7143844363649634 0  0.7143844363649634 2.430461544791169 0  -3.319538455208831 -0.7143844363649634 0  5.687045771608623 -0.6520598572553891 0  -5.687045771608623 0.6520598572553891 0  -1.15625 -0.7048248829733235 0  3.438284572973296 -0.01860298867862281 0  -0.03021088078697859 3.451572359862192 0  2.216682837011589 -0.02159585961918548 0  -2.191580885932936 -0.03126387444658879 0  0.1857410764408683 1.895679405349457 0  3.103473238297955 -0.253270943723272 0  -2.646526761702045 -0.253270943723272 0  -2.333137350671861 -0.6791984914172315 0  -1 5.0625 0  -0.6971235589909319 5.213002544375844 0  0.01618705363819947 2.225929180591695 0  0.01618705363819947 -3.524070819408305 0  0.5690054882403073 0.7951310720450595 0  -0.5764940424412852 -3.329579265180942 0  -0.5764940424412852 2.420420734819058 0  3.8125 1 0  -5.372163860234628 0.04365139563106807 0  5.164108319316826 -0.225040894204947 0  -5.361952437854323 0.6744012088984681 0  -5.0625 1 0  5.286835586913878 -0.6616705837083201 0  -5.692815197359722 0.1186699900166531 0  5.663425996156958 -0.07763197815533956 0  -0.9219866027132193 -0.1143045829323572 0  -1.394333629759332 -0.2233077430199216 0  0.09322478991596644 -0.9616596638655462 0  5.0625 -1 0  -0.14412109375 -1.92169189453125 0  -4.28125 -0.7212148987671345 0  0.2649796277366407 0.1735162902120744 0  -4.907855692236596 0.1868230509619793 0  -1.9375 1 0  1 5.0625 0  0.6915124486819284 -5.272938212550202 0  0.683483242673902 5.284948082526911 0  2.5625 -1 0  -1 -3.8125 0  -1 1.9375 0  5.0625 1 0  -1 -1.9375 0  1 5.6875 0  1 -5.6875 0  -1.9375 -1 0  -1 -2.5625 0  -1 3.1875 0  1 -3.1875 0  1 -2.5625 0  1 2.5625 0  1 3.1875 0  -5.0625 -1 0  -1 -1.3125 0  1.3125 -1 0  -1 1.3125 0  -1 3.8125 0  -1 4.4375 0  -4.4375 1 0  4.4375 -1 0  4.4375 1 0  -1.3125 1 0  1 4.4375 0  1 -4.4375 0  -1 -5.0625 0  -1 -4.4375 0  -3.1875 1 0  2.5625 1 0  1 -1.9375 0  1 -1.3125 0  5.6875 1 0  1 3.8125 0  3.1875 1 0  -3.1875 -1 0  1 -5.0625 0  1.35138038998199 0.6675097549271188 0  -0.465625 0.986328125 0  1.435958105992309 0.2563920171199723 0  1.915914614192913 -0.145782394639918 0  -0.8764440609469509 -0.5746869313612541 0  5.355194559946098 0.01566259380337612 0  -5.69333042954964 -0.5242868300459975 0  1.78125 -0.7320750794491524 0  0.7320750794491525 -3.96875 0  -0.3959075548864684 5.166422468926435 0  -4.770522389068053 -0.2123670725088856 0  -4.714160156249999 -0.69234375 0  -4.273484403713342 -0.278160994327167 0  0.9642590244517505 0.08196089404241463 0  0.3500261717645397 -4.727285205957206 0  0.6740868006020392 -4.765147848348443 0  0.6797550207247084 -1.089747806381148 0  -5.186479934354063 0.3046329157552757 0  -5.263288238215326 -0.3369092276308425 0  -2.433484016245305 0.5442571297016638 0  0.1707808983307866 -3.82363304980935 0  -0.1554012991031027 3.867535742674252 0  4.855508096805579 -0.2283975605264581 0  3.644517238097614 0.5646428152488787 0  0.05699603874439441 -0.6452791208413911 0  -0.3550018917972689 -0.5695324323732931 0  0.6
[...]
<PointData  Scalars="u"> 
<DataArray  type="Float64"  Name="u"  format="ascii">-3.7425107047851452e-01  0.0000000000000000e+00  0.0000000000000000e+00  -3.7012244210176248e-01  -7.3900549465216370e-01  -7.3900549465216370e-01  -3.7072920224199030e-01  0.0000000000000000e+00  0.0000000000000000e+00  -3.7054076721663826e-01  -7.3900549465216370e-01  -7.3900549465216370e-01  -5.6537546357856461e-01  -5.6585275344254327e-01  -5.6532742937016944e-01  -5.6567407003038206e-01  -1.7339187880273002e-01  -1.7410006843243897e-01  -1.7342473055220392e-01  -1.7415442966755573e-01  -4.7895683315982540e-01  -4.7954179145144477e-01  -2.6006718015707608e-01  -2.6004137210180162e-01  -4.7945156127150168e-01  -4.7923002365054851e-01  -6.5188357161929034e-01  -6.5232792312052890e-01  -8.6997343805394062e-02  -8.6795158370245179e-02  -2.6038737582457600e-01  -2.6048511947923270e-01  -6.5272035681625074e-01  -6.5253711540219750e-01  -8.7350922206443166e-02  -8.6605026523127113e-02  -3.6792999742831767e-01  -2.1673249742881237e-01  -3.0261562223243899e-01  -1.3010858535196954e-01  0.0000000000000000e+00  -5.2244184864522125e-01  -2.1663836490455671e-01  -7.3900549465216370e-01  -3.0237848036187553e-01  -5.2245146480597104e-01  -4.3633342438055600e-01  -4.3631702989624571e-01  -6.0906157432242458e-01  -7.3900549465216370e-01  -6.0906321278825426e-01  -1.2999528976022073e-01  0.0000000000000000e+00  -6.7403168643761480e-01  -6.5088923258505557e-02  -6.7405258730499384e-01  -6.5004942089623013e-02  -3.5037757131761837e-01  -3.8668747503477119e-01  -3.5051779765738789e-01  -3.8667175217895894e-01  -6.9569824450013507e-01  -4.3015821375601254e-02  -6.9547198118314968e-01  -4.2987823924504308e-02  -3.6625670085561346e-01  -4.4247884331337722e-02  -6.9588589774923826e-01  -6.9561749542005957e-01  -7.3900549465216370e-01  -4.3235408813892283e-02  0.0000000000000000e+00  -1.7341225533701371e-01  -1.7812032103686798e-01  -2.1685517910886265e-01  -1.2978694959805429e-01  -5.6574262016644639e-01  -5.7051873154001187e-01  -6.0899626153495157e-01  -6.0909027495854440e-01  -4.7913542202352799e-01  -4.7436715615683189e-01  -4.3550368576280307e-01  -4.3504582032231143e-01  -5.6572838193449726e-01  -5.7051499960061902e-01  -6.0900868949036435e-01  -4.7916374372247655e-01  -4.7437646918597715e-01  -6.0863365313773832e-01  -5.2263129299867017e-01  -5.2285482722145804e-01  -4.3538949173408070e-01  -3.0429025612077976e-01  -3.0406593192928388e-01  -2.5989501995819692e-01  -2.6464841215701451e-01  -1.3022150109675404e-01  -2.1645626066127932e-01  -5.2206612057818191e-01  -4.3543426612033892e-01  -5.2216929268645818e-01  -1.3029739047671726e-01  -2.6008848701993598e-01  -2.5530639217675644e-01  -2.1658902409197342e-01  -3.0469736941490233e-01  -1.3046669994533164e-01  -1.7347268095027624e-01  -1.6867064126053752e-01  -3.0425847643549209e-01  -2.1662635951755987e-01  -3.9847396092235665e-01  -3.3691207555951269e-01  -4.0135749517759300e-01  -3.3472071875091947e-01  -6.3076322655911576e-01  -6.3071363882749332e-01  -3.6001352114919699e-02  -6.3071382315276081e-01  -7.3900549465216370e-01  -3.6343997085976776e-01  -3.2534671891520334e-01  -7.3900549465216370e-01  -3.7311015169754719e-01  -1.0834530011824615e-01  -1.0831886193748179e-01  -7.3900549465216370e-01  0.0000000000000000e+00  -3.5996321001898854e-02  -1.0068362604720615e-01  -1.0847378770584976e-01  -6.3066225571027079e-01  -6.7153590448363332e-01  -6.7158120480266792e-01  -4.1377920812067820e-01  -3.2499379130494688e-01  -4.1358564044632551e-01  -7.0564712475403302e-01  -7.0437542893614036e-01  -7.1523888755399403e-02  -7.1508881078153438e-02  -1.4370869421301044e-01  -3.0982198197441822e-02  -3.0919893759331588e-02  -7.0175029360449859e-01  -7.0175727461288295e-01  0.0000000000000000e+00  -3.0571969227564055e-01  -2.0401976459010870e-01  -5.1255513090356619e-01  -5.0973095427293946e-01  -2.2935615096319092e-01  -3.0221834484707738e-01  -4.4557715411468757e-01  -5.3517162891105197e-01  -4.4079300961686868e-01  -2.0674033728549643e-01  -5.3233741864485395e-01  -2.2661017865003893e-01  0.0000000000000000e+00  -1.3531015752725750e-01  -1.4303175745373309e-01  -1.4293148944625678e-01  -5.9756647194247903e-01  -5.9750343136988715e-01  -2.9076666532920292e-01  -4.4721919582370961e-01  -6.4153758800684357e-01  -6.9109063172056548e-02  -9.6684364880595730e-02  -7.5855148067641986e-02  -6.6321780986541801e-01  -6.4238546151424902e-01  -6.6944764978484894e-01  -9.6901437434336241e-02  -1.9501103446583490e-01  -5.4136891465888826e-01  -2.3831368552548474e-01  -5.0359123363249814e-01  -5.4418680200808300e-01  -5.0073863157559295e-01  -3.6828757661891809e-01  -3.7177517855186348e-01  -3.7344932353179044e-01  -4.4419606061634725e-01  -2.9473078672343839e-01  -6.0063526503219533e-01  -6.0063463983808052e-01  -2.3808840287461469e-01  -1.9510254941318295e-01  -4.0979903066579065e-01  -3.2825304573944131e-01  -3.6368974008643862e-01  -3.7402676868459217e-01  -3.5391121126409419e-01  -3.2910755611646253e-01  -4.0876981527322342e-01  -3.7245565868900715e-01  -4.1481015795475323e-01  -2.7732651599958713e-01  -4.1848786706187030e-01  -2.2184598476306210e-02  -7.1077356768662336e-01  -2.1292527552476924e-02  -7.1219932868413582e-01  -2.6590447629515877e-02  -2.2471139801304725e-02  -2.8163725284691254e-01  -3.2651129260943346e-01  -5.4722074087549233e-01  -4.9767118455327164e-01  -1.9196428798055976e-01  -2.8197417030418531e-01  -2.4138209268717209e-01  -4.9406489692011191e-01  -5.4412095656681025e-01  -1.5589845895519122e-01  -4.1896832737129540e-02  -3.2677939354171698e-01  -2.8196760570418106e-01  -4.6292218374267885e-01  -5.8186967557646008e-01  -5.8758065554291194e-01  -2.7642472225135473e-01  -7.1686350408195132e-01  -7.1688125849811568e-01  -2.3215541258841363e-01  -2.0132106103076286e-01  -4.5709673172412568e-01  -1.5159846814302116e-01  -3.7776559290613515e-01  -6.5196264650997604e-01  -2.3393545115433620e-01  -1.9947380642850571e-01  -7.1348488885418848e-01  -5.1771666958253727e-02  -4.6935352473843095e-01  -5.7560538580217524e-01  -5.7548825497462730e-01  -7.2130312320706036e-01  -1.0821516532601072e-01  -5.1130434699348559e-01  -3.5627209432930934e-01  -3.5712235111403795e-01  -3.4991617452646007e-01  -4.2478991724648590e-01  -3.6442422728918844e-01  -2.7087006887792753e-01  -5.7659277806303200e-01  -4.6826989032732402e-01  -1.6262559009573133e-01  -1.7098629134701071e-01  -4.5805136323993706e-01  -2.6683756581162510e-01  -5.8693926504693927e-01  -5.8695984693873426e-01  -2.3722168408301889e-01  -1.9611922452342942e-01  -1.8287271136672956e-01  -4.5646847756405790e-01  -4.6945507495338323e-01  -2.8438527387803259e-01  -1.5691869228690586e-01  -5.4075182159884472e-01  -2.8316856768961679e-01  -3.8551279825006923e-01  -2.3775498346073196e-01  -5.4379561599034887e-01  -5.0107379159186660e-01  -6.5985355518359978e-01  -5.0183919056617599e-01  -5.4304960876331498e-01  -1.4886835437234802e-01  -1.5138507939892673e-01  -6.9892986511899868e-01  -1.5145061103130353e-01  -1.6519229866530233e-01  -5.0593401623132739e-01  -4.2088784365550030e-01  -4.1398105984223987e-01  -9.0144417202263849e-02  -5.5331969818003035e-01  -2.4749209611808254e-01  -4.9155381774256296e-01  -1.8591320513500301e-01  -2.1842451536547697e-02  -2.1874559281870095e-02  -3.3909135535267099e-01  -1.7761514478868501e-01  -5.6239562243783003e-01  -2.6213481957176588e-01  -2.6403481963205794e-01  -4.5469455336658798e-01  -2.0080790325356621e-01  -2.3257619443343358e-01  -2.5450164227009886e-01  -6.7463677225159879e-01  -6.8430127049238043e-01  -4.7749716591588415e-01  -5.6741308498642418e-01  -3.7788163067145009e-01  -5.5400092014300595e-01  -4.9088247020349496e-01  -1.5099218490032509e-01  -4.3594127632004778e-02  -5.7985501049340936e-02  -4.4178551122115613e-02  -6.4999763233335103e-02  -4.9455740466676369e-02  -2.1326159781205618e-02  -2.3333999511125924e-02  -3.4495928284004518e-01  -3.1802638167619279e-01  -3.9480260468950978e-01  -6.5468327771141394e-02  -4.5650200964579202e-01  -1.1926054198874904e-01  -3.6688799828771401e-01  -7.5801961630219475e-02  -2.8221681973917334e-01  -6.7381483696296685e-01  -6.8871677406091647e-01  -6.8953833288233168e-01  -2.3802926098806265e-01  -5.8797431304590164e-01  -4.5689199477955250e-01  -6.4710612757382338e-02  -4.5705886544642760e-01  -7.1778992437079769e-01  -7.1790165453186905e-01  -2.8250536922471747e-01  -5.0132148242296959e-01  -5.4372953933851020e-01  -5.4403386672060750e-01  -5.0023352469286486e-01  -5.0082815011118309e-01  -5.4475780969506049e-01  -6.5223454789185745e-02  -4.1533716111014662e-01  -3.2930971185161667e-01  -4.1549018303013352e-01  -5.8776485793341915e-01  -6.3044712806970482e-01  -1.0824636614221718e-01  -1.0816603583232055e-01  -1.0842984680510867e-01  -3.2637827671178787e-01  -6.3069139055022649e-01  -6.3058161533172152e-01  -6.7471800293295137e-01  -6.3052398072093407e-01  -1.9502276100731272e-01  -2.3840272557839565e-01  -4.5709294033155562e-01  -4.1472764106216703e-01  -2.1176065033412354e-02  -5.8768407282537494e-01  -1.9538669855160587e-01  -1.9531038868111777e-01  -6.7378548412617822e-01  -3.2436667494379195e-01  -3.9203289585154566e-01  -3.1525543162955200e-01  -2.8280365076509140e-01  -3.5563965902103806e-01  -4.4714796344244537e-02  -2.1434076216358181e-02  -2.9278545672356282e-01  -5.9818751859291897e-01  -6.8134417223327659e-01  -8.5355187415630765e-02  -8.9245910131551615e-02  -1.1981073049686895e-01  -3.4252132046337197e-01  -6.5080535026138786e-01  -6.5348308779505382e-01  -3.9590098421387043e-01  -5.6456956159569166e-02  -5.1226937293381146e-02  -2.4744913708538632e-01  -5.8817270005778666e-01  -5.9122590529349328e-01  -7.9356774798659935e-02  -1.6333793616027745e-01  -3.8029556650879531e-01  -3.7418682036698014e-01  -3.6234337473542949e-01  -3.6956959870833711e-01  -1.4350858394869045e-01  -6.6319268332403281e-01  -6.8241289237160463e-01  -6.8200759323237503e-01  -6.5101831835079194e-01  -6.1989409906623316e-01  -9.7376761150033880e-02  -9.7520795607383637e-02  -3.1546061744120885e-01  -3.4000701143711692e-01  -7.1960332140537486e-01  -4.2252486733288380e-01  -3.9330665239803853e-01  -3.1305454157930263e-01  -3.9603607873367741e-01  -4.2551519719645786e-01  -6.1804216964488023e-01  -6.1802453087292508e-01  -3.3914628083756693e-01  -4.3149344206828061e-01  -1.1481207470114338e-01  -6.4871954715842861e-01  -6.2714143540807121e-01  -6.5623885973170937e-01  -6.1984423001587108e-01  -6.4555286555633296e-01  -6.2701800780950745e-01  -3.9827568519608059e-01  -4.2387682742833926e-01  -3.1549392801595078e-01  -3.0963407957774153e-01  -6.1264524122625852e-01  -1.1190306669956214e-01  -1.2458972181651155e-01  -1.1460439929749132e-01  -1.2471612038006649e-01  -1.2681805692616041e-01  -9.0350687898916926e-02  -7.1961901560615449e-01  -6.4152793000053077e-01  -6.1989740316148667e-01  -5.1252952873819833e-02  -7.2079224246052753e-01  -3.1808785650744886e-01  -3.3961230178423713e-01  -3.5666310227181264e-01  -1.5324799601030720e-01  -3.5091301328697394e-01  -5.9815066785210436e-01  -4.4639196288254679e-01  -6.9367689185237524e-01  -6.6160519639156978e-01  -1.2620607707969231e-01  0.0000000000000000e+00  -8.9729061955670555e-02  -6.8476408120334686e-01  -1.3365043719154937e-01  -4.7342366657130863e-01  -4.4646683216293981e-01  -1.4390213010405656e-01  -6.0059116745983654e-01  -7.3900549465216370e-01  -1.8402249002121995e-01  -2.5773783439534442e-01  -3.5727362338415103e-01  -3.9424516805522303e-01  -2.9400612102305163e-01  -5.6340532829193912e-01  -4.8152816799794185e-01  -7.1949712532145871e-01  -7.2215041718250639e-01  -7.2099522662194060e-01  -1.4722822152397708e-01  -1.6409831237538357e-02  -6.8597496222088383e-01  -7.2071764893342438e-01  -5.9370623299095615e-01  -1.7223420332572324e-02  -4.9301134482241649e-01  -5.1159699982982954e-01  -5.3321494181051199e-01  -5.2487902745825776e-01  -5.2148289650698820e-01  -2.1819105617799509e-01  -2.2406257812638691e-01  -2.1514608792092033e-01  -2.0930647491817625e-01  -1.8587896393661371e-01  -2.4747487136907323e-01  -5.5330549153626851e-01  -4.9238601453334108e-01  -7.9040130814075335e-02  -8.9794098262573965e-02  -6.9222228562953370e-01  -1.7654727819082869e-01  -2.0013393190041068e-01  -2.1948147652004690e-01  -5.0524777323390024e-01  -5.3956734759161862e-01  -2.2752659389798235e-01  -4.4657191148470965e-01  -5.2471131851741393e-01  -5.5477518922596081e-01  -4.8993107171927774e-01  -3.8438449411785575e-01  -5.2470221431770170e-01  -2.1785483283449772e-01  -2.1552581516337993e-01  -5.1951626477465884e-01  -2.9299039878141026e-01  -7.3900549465216370e-01  -5.3873041218205894e-02  0.0000000000000000e+00  -1.5552199509084045e-02  -1.7585285929210510e-02  0.0000000000000000e+00  -1.3254489322239843e-01  -1.6085680880715642e-01  -7.0241447629769416e-01  -4.8544809313758414e-01  -5.5959901813201085e-01  -2.4762711965555448e-01  -7.0221865345866874e-01  -6.7078776463775569e-01  -2.4544039743350060e-01  -4.5785344343954554e-01  -1.5241608179199556e-01  -3.6046502155563070e-01  -6.1475583349869134e-01  -4.6348971910882952e-01  -1.8911416960643510e-01  -4.3790363586332648e-01  -6.1479782158344498e-01  -4.0589496981130418e-01  -3.2369994860077828e-01  -3.0150455124517972e-01  -6.9168159295398335e-01  -3.5804580207275338e-01  -4.2269166415507176e-01  -4.1736392827423846e-01  -4.0619895490155172e-01  -3.3829303427277208e-01  -4.2224538137130241e-01  -2.9233343572320392e-01  -2.8250011957323695e-01  -3.7527913971129839e-01  -3.7459582595653346e-01  -3.5345343669108642e-01  -3.4722159080727927e-01  -3.4032471461460373e-01  -2.9999022240517920e-01  -4.4065304702597791e-01  -3.4604917776009847e-01  -3.4134028187331616e-01  -3.8840495930663615e-01  -3.8296351496378916e-01  -3.7633945295009491e-01  -3.5109156671524799e-01  -3.9232541149304850e-01  -3.8966966913569578e-01  -3.6760147824581213e-01  -3.6916431043547870e-01  -3.6770787285071732e-01  -3.4883489241872895e-01  -3.6802418485854421e-01  -3.6251617396267061e-01  -3.6646411146411895e-01  -3.7132724015948093e-01  -3.7613918085719683e-01  -4.2509540568103893e-01  -3.3383208807765363e-01  -4.4435062175948081e-01  -4.5744127174264204e-01  -3.2699715733233298e-01  -3.1557685176738609e-01  -2.8292984429735485e-01  -2.7968670403739671e-01  -4.1009417447807112e-01  -2.9639908985730667e-01  -2.9360522787118049e-01  -2.9165969978439948e-01  -4.2822095678485478e-01  -4.3077903334573531e-01  -3.2887384962200283e-01  -3.6098402057846007e-01  -3.6346336946787283e-01  -3.6271379667174009e-01  -3.7138509508817197e-01  -3.0356397629651266e-01  -3.2798554608248265e-01  -3.7408692860645176e-01  -3.7834220690089859e-01  -4.4782756390079043e-01  -3.2643877061275656e-01  -4.1183238835678415e-01  -4.0377310054357285e-01  -4.1138551071584567e-01  -3.3930045312701662e-01  -4.3259664270656345e-01  -4.5206606022229900e-01  -4.4545871713476248e-01  -4.4710939678809292e-01  -4.4175659600917155e-01  -4.5818654223312127e-01  -4.6324427063785151e-01  -3.8147883574484864e-01  -3.7953672084221179e-01  -4.4632312152870901e-01  -4.0962118936369035e-01  -3.1924026945790307e-01  -3.5281560117039346e-01  -3.6931979129677289e-01  -3.6684365581271988e-01  -3.8201618504882245e-01  -3.8531912314865430e-01  -3.7648285993722164e-01  -3.3754541175934771e-01  -3.2839327897664217e-01  -3.1628036794309139e-01  -4.1821226989292570e-01  -4.3049208506080971e-01  -3.8084947761411203e-01  -3.6907069790520103e-01  -4.0611238398848309e-01  -3.1158990302933065e-01  -3.0527080614141894e-01  -2.9357650389114087e-01  -3.1419738815196807e-01  -2.8937752645878922e-01  -2.8041528727978304e-01  -3.6604982232068389e-01  -3.8250309961420031e-01  -3.8704779006311474e-01  -3.3849220723495160e-01  -3.3047816521138640e-01  -3.4973359468050430e-01  -3.7497531433827253e-01  -3.6306096735828758e-01  -3.1285633883729053e-01  -3.9656060836353563e-01  -4.0427899460272221e-01  -3.5859583170034814e-01  -3.3242622113881048e-01  -3.9755474477237296e-01  -4.4025169491580424e-01  -4.5927599334680214e-01  -4.4715192175182894e-01  -4.2900041287343826e-01  -3.5691263717359273e-01  -3.3645382429305309e-01  -4.0240139723312596e-01  -4.2400102207022106e-01  -3.4179942085858178e-01  -4.2722976655512390e-01  -4.1564762201886352e-01  -2.8354899697553210e-01  -2.7324511580190303e-01  -2.9847430072372599e-01  -3.4837958368032912e-01  -3.0393208411877548e-01  -3.0482621049569586e-01  -3.0977995777874157e-01  -3.1500434582087899e-01  -3.3997639892857523e-01  -4.0501985376075822e-01  -3.6727599996049953e-01  -4.0427844993950052e-01  -4.2180732334207388e-01  -4.0744479401824396e-01  -2.9958248477412025e-01  -3.1896199247165830e-01  -3.1109471512299930e-01  -3.3959774237575147e-01  -3.5487845611467445e-01  -3.6058595656662301e-01  -4.3531638713253734e-01  -4.3586944994857607e-01  -3.6534121350193605e-01  -3.6954928195711378e-01  -4.0369597961646408e-01  -3.0871033854080060e-01  -3.6407379859718531e-01  -3.5859986961803192e-01  -4.5110325919264865e-01  -4.2863955279080268e-01  -4.3052215119852216e-01  -3.9554807904411526e-01  -3.9713470905433712e-01  -3.2752549844658180e-01  -3.1193403828346145e-01  -3.1025607274532496e-01  -3.6002555532267644e-01  -3.5598175225088741e-01  -3.6264567125576724e-01  -3.6846675923553307e-01  -3.6906515332894707e-01  -3.7823217309882567e-01  -3.8199452777158133e-01  -3.5596167726283340e-01  -3.5815755508762237e-01  -3.5122603741267316e-01  -3.4565588984281587e-01  -3.4564655627689583e-01  -3.4237387306721434e-01  -3.3731324723095407e-01  -3.4879430733065009e-01  -3.5226369145312802e-01  -3.9153759771291530e-01  -3.7144729679244670e-01  -3.7865736830121133e-01  -3.8105018587960304e-01  -3.7747309733114726e-01  -3.8132224347789684e-01  -3.5881131958589241e-01  -3.4522623581864081e-01  -3.8977469961779232e-01  -3.8697217821272828e-01  -3.6007614572950486e-01  -3.6517178692512425e-01  -3.6305653421292161e-01  -3.6850626957342519e-01  -3.7458083533917047e-01  -3.7348791981478724e-01  -3.6704688236065236e-01  -3.6614004967662411e-01  -3.6991598312138568e-01  -3.5315336945876219e-01  -3.7211956377533356e-01  -3.6477457775584399e-01  -3.6986766505457386e-01  -3.7132415310422234e-01  -3.7508155330095194e-01  -3.6913711599379440e-01  -3.6842202315280093e-01  -3.6154459842381187e-01  -3.6669601244675470e-01  -3.6238925348848572e-01  -3.5961357185092913e-01  -3.6591221255851047e-01  -3.6379512156142524e-01  -3.6027049623010965e-01  -3.6375376585828662e-01  -3.6372249397367989e-01  -3.7611797672869984e-01  -3.7141886826572085e-01  -3.7714379288373240e-01  -3.7108612818545772e-01  -3.8027188947473423e-01  -3.8365716740789668e-01  -3.8672195479695914e-01  -3.8113466192394718e-01  -3.7559093694907569e-01  -3.4607885610403455e-01  -3.5451490988776657e-01  -3.5662619841441590e-01  -3.6766179610804828e-01  -3.6799217640285409e-01  -3.7068863231262716e-01  -3.6835968399128216e-01  -3.6685308694392738e-01  -3.9106112171936247e-01  -3.7900913532883829e-01  -3.8936102439907500e-01  -3.8199282700961690e-01  -3.7494495382936777e-01  -3.6789300985452433e-01  -3.9104724421597553e-01  -3.8348648163346688e-01  -3.8604491904806920e-01  -3.4609234260273036e-01  -3.5346856053192982e-01  -3.5443292624823064e-01  -3.4789490764572917e-01  -3.6949240972301939e-01  -3.5913587981480288e-01  -3.5375109397449672e-01  -3.5723334904911053e-01  -3.4639892996234495e-01  -3.4104915884119225e-01  -3.6633101185437411e-01  -3.6439853004304534e-01  -3.6804820979098873e-01  -3.6618986484522192e-01  -3.7190558738114748e-01  -3.6875515163052197e-01  -3.6086487346838908e-01  -3.6180543667681714e-01  -3.9181355341087581e-01  -3.9171917234806064e-01  </DataArray> 
</PointData> 
</Piece>
</UnstructuredGrid>
</VTKFile>