<?xml version="1.0"?>
<VTKFile type="UnstructuredGrid"  version="0.1"  >
<UnstructuredGrid>
<Piece  NumberOfPoints="778" NumberOfCells="1401">
<Points>
<DataArray  type="Float64"  NumberOfComponents="3"  format="ascii">1 -1 0  6 -1 0  6 1 0  1 1 0  1 6 0  -1 6 0  -1 1 0  -6 1 0  -6 -1 0  -1 -1 0  -1 -6 0  1 -6 0  1 3.5 0  -1 3.5 0  -1 -3.5 0  1 -3.5 0  3.5 -1 0  3.5 1 0  -3.5 -1 0  -3.5 1 0  -1 -2.25 0  1 -2.25 0  2.25 -1 0  2.25 1 0  -1 2.25 0  1 2.25 0  -1 4.75 0  1 4.75 0  -4.75 -1 0  -4.75 1 0  -2.25 1 0  -2.25 -1 0  1 -4.75 0  -1 -4.75 0  4.75 1 0  4.75 -1 0  0 0 0  -2.875 0 0  -1.625 0 0  -4.125 0 0  -6 0 0  0 2.875 0  2.875 0 0  0 6 0  1.625 0 0  0 -2.875 0  0 -1.625 0  0 1.625 0  0 4.125 0  0 -6 0  0 -4.125 0  4.125 0 0  6 0 0  -0.109375 5.0625 0  -5.0625 -0.109375 0  -0.109375 -5.0625 0  5.0625 0.109375 0  0.8125 -0.1875 0  -0.1875 -0.8125 0  -0.8125 0.1875 0  -0.1875 0.8125 0  1 5.375 0  -5.375 1 0  1 -5.375 0  5.375 -1 0  0.53515625 0.46484375 0  -5.375 -1 0  -1 5.375 0  -1 -5.375 0  -0.5 -6 0  5.375 1 0  6 0.5 0  3.5 0.3046875 0  3.43125 -0.34765625 0  2.875 -1 0  4.125 1 0  0.3046875 3.5 0  -0.34765625 3.56875 0  -1 4.125 0  1 4.125 0  -0.3046875 2.25 0  0.34765625 2.18125 0  1 1.625 0  -1 -1.625 0  -0.3046875 -3.5 0  0.34765625 -3.56875 0  1 -4.125 0  0.3046875 -2.25 0  -0.34765625 -2.18125 0  -1 -4.125 0  -1 -2.875 0  1 -2.875 0  1 -1.625 0  1.625 -1 0  1.625 1 0  2.25 0.3046875 0  2.18125 -0.34765625 0  4.125 -1 0  2.875 1 0  1 2.875 0  -1 1.625 0  -1 2.875 0  -4.125 -1 0  -2.25 0.3046875 0  -2.31875 -0.34765625 0  -2.875 -1 0  -1.625 1 0  -4.125 1 0  -3.5 0.3046875 0  -3.56875 -0.34765625 0  -1.625 -1 0  -2.875 1 0  0.380626321794301 1.06853329530276 0  -1.110819327731092 -0.3739495798319328 0  0.3739495798319328 -1.110819327731092 0  1.151210293219304 0.3991939332620648 0  -0.5 -4.4375 0  0.5 -4.4375 0  5.481553398058253 -0.3712833737864077 0  0.5 4.4375 0  0.5 6 0  -0.522503783594538 -0.3265648647465863 0  -1.3125 0.5 0  -0.5 6 0  0.3265648647465863 -0.522503783594538 0  4.4375 0.5 0  4.4375 -0.5 0  0.5 -6 0  -6 -0.5 0  -5.481553398058253 0.3712833737864077 0  -4.55 -0.4296875 0  -4.4375 0.5 0  -0.5 4.4375 0  0.4792930825242718 5.026881067961165 0  0.4792930825242718 -5.026881067961165 0  -0.5 1.3125 0  1.3125 -0.5 0  -0.5 -1.3125 0  0.25 5.518539952962044 0  0.2125133872612723 -5.500076563152851 0  4.969341874373811 -0.5152550785163683 0  -4.969341874373811 0.5152550785163683 0  3.927189744345589 -0.4712876597840069 0  -5.554036458333333 -0.25 0  5.554036458333333 0.25 0  -0.4690710616438356 -5.462756849315069 0  -0.4690710616438356 5.462756849315069 0  -6 0.5 0  -1.59556436210848 -0.5 0  -3.058421751829955 -0.5 0  -0.5 2.731982421875 0  0.5 2.691578248170045 0  2.691578248170045 -0.5 0  1.641211254104555 0.5 0  0.5 -1.768017578125 0  0.5 -3.058421751829955 0  0.5 1.699267578125 0  3.018017578125 0.5 0  -0.5 -3.018017578125 0  -2.731982421875 0.5 0  6 -0.5 0  -4.050017120925308 -0.5006099332648871 0  -3.940668202764977 0.5371363767281105 0  3.940668202764977 0.5371363767281105 0  0.4517449476047904 3.958458083832335 0  -0.4517449476047904 -3.958458083832335 0  -1.809331797235023 0.5371363767281105 0  -0.4517449476047904 1.791541916167665 0  -0.0546875 4.59375 0  -5.006445312499999 -0.58984375 0  4.605643203883496 -0.04725424757281554 0  4.90625 0.5546875 0  -0.5546875 4.90625 0  0.04725424757281554 -4.605643203883496 0  -0.586116118210531 -4.995821561900013 0  -4.603710222472543 0.04846236095466061 0  -3.1875 0.65234375 0  0.6163907621110913 3.147502300973589 0  2.5625 0.65234375 0  0.6163907621110913 -2.602497699026411 0  -0.637456713551384 3.189259902731882 0  -0.637456713551384 -2.560740097268118 0  -0.34765625 0.34765625 0  -0.639453125 0.708203125 0  0.089630126953125 0.437286376953125 0  -0.4238281249999999 -1.746875 0  1.746875 -0.4238281249999999 0  -0.4238281249999999 4.003125 0  0.4238281249999999 -4.003125 0  -2.5625 -1 0  3.1875 -1 0  -0.09375 -1.21875 0  1.21875 -0.09375 0  0.4020305405760241 -0.1120343241705621 0  -0.6280191027904287 -0.7577505545748082 0  0.90625 -0.59375 0  -1.205500904741459 0.03633725387965409 0  -0.02129048848213058 1.202028574265107 0  -0.1120343241705621 -0.4020305405760241 0  1 1.3125 0  -2.003587563743074 -0.6442361556699288 0  0.6640077663259718 -1.395873598614549 0  5.6875 -1 0  0.6308138580859101 -5.592151086468728 0  -5.6875 -1 0  0.6568032075915271 5.612942566073222 0  5.616530031741774 0.6612875396772174 0  -5.6875 1 0  1.9375 1 0  -1.3125 -1 0  0.1524679547155687 -3.232579139388032 0  0.1524679547155687 2.517420860611968 0  -3.232579139388032 -0.1524679547155687 0  -1.932320553757026 -0.252759244693845 0  2.517420860611968 -0.1524679547155687 0  -0.04776045819569434 -2.464949198504599 0  -0.2420369079104247 3.187693796852321 0  3.751304711039982 -0.1203080877045035 0  -5.397601941771943 -0.609026059866711 0  1.3125 1 0  1.9375 -1 0  -0.6946315101963667 -2.018229242739021 0  -0.6946315101963667 3.731770757260979 0  1 -3.8125 0  2.014364435550335 0.6166648446293641 0  -1 5.6875 0  -1 -5.6875 0  -2.653476149871182 -0.5942957192996303 0  3.096523850128818 -0.5942957192996303 0  1 1.9375 0  -3.8125 -1 0  0.586975531244212 -0.7975955463807081 0  -0.2946248980953088 -4.743710873809568 0  2.625453376770019 0.2814788818359375 0  -3.124546623229981 0.2814788818359375 0  -0.1204856417894853 5.631800603217465 0  5.253862011026742 0.6581468962876398 0  -0.65234375 2.108701557941197 0  0.65234375 3.641298442058803 0  -0.65234375 -3.641298442058803 0  -0.25 -5.744880569758637 0  -4.4375 -1 0  -0.3166212631734941 -2.713595940002554 0  0.6591479224207506 0.1324305912687024 0  0.8660781906552419 0.6468634238104103 0  -0.9887189158197679 0.6452930723873549 0  0.3149351927204296 -1.460971774996065 0  -0.3572852727880474 -0.009629022788047503 0  2.09375 -0.6866724363772454 0  0.6866724363772454 -3.65625 0  0.6866724363772454 2.09375 0  -3.65625 -0.6866724363772454 0  -3.5371337890625 0.65234375 0  -0.1389584113023952 1.944025352615082 0  -2.151744288472698 0.65234375 0  -0.1389584113023951 -3.805974647384918 0  0.1389584113023951 3.805974647384918 0  -2.578772109813904 0.1857224367977529 0  3.171227890186096 0.1857224367977529 0  3.360315647536819 0.65234375 0  0.1857224367977528 -1.921227890186096 0  0.65234375 -2.110315647536819 0  1.894016528727564 0.2415406141485869 0  -3.738232421875 0 0  0.2516875549238616 3.139069895099618 0  -1.913724396854074 0.2011142179916434 0  0.1669456568161915 0.7843410671359501 0  -2.5625 1 0  -1 -3.1875 0  -1 2.5625 0  0.1736601499778735 4.857955663330752 0  -0.1893536587212888 2.577300639071919 0  -0.1893536587212888 -3.172699360928081 0  3.852271904453858 0.206603749322895 0  -3.8125 1 0  -0.1250095034621793 -5.421707592768541 0  3.8125 -1 0  3.617304217264373 -0.6578427703661498 0  0.2630176195580202 -2.636558318495885 0  0.2674330357770522 1.399517071108871 0  0.631726413079416 1.339254523727593 0  4.700571879807737 0.2813704945051134 0  0.7143844363649634 -3.319538455208831 0  2.430461544791169 -0.7143844363649634 0  0.7143844363649634 2.430461544791169 0  -3.319538455208831 -0.7143844363649634 0  5.687045771608623 -0.6520598572553891 0  -5.687045771608623 0.6520598572553891 0  -1.15625 -0.7048248829733235 0  3.438284572973296 -0.01860298867862281 0  -0.03021088078697859 3.451572359862192 0  2.216682837011589 -0.02159585961918548 0  -2.191580885932936 -0.03126387444658879 0  0.1857410764408683 1.895679405349457 0  3.103473238297955 -0.253270943723272 0  -2.646526761702045 -0.253270943723272 0  -2.333137350671861 -0.6791984914172315 0  -1 5.0625 0  -0.6971235589909319 5.213002544375844 0  0.01618705363819947 2.225929180591695 0  0.01618705363819947 -3.524070819408305 0  0.5690054882403073 0.7951310720450595 0  -0.5764940424412852 -3.329579265180942 0  -0.5764940424412852 2.420420734819058 0  3.8125 1 0  -5.372163860234628 0.04365139563106807 0  5.164108319316826 -0.225040894204947 0  -5.361952437854323 0.6744012088984681 0  -5.0625 1 0  5.286835586913878 -0.6616705837083201 0  -5.692815197359722 0.1186699900166531 0  5.663425996156958 -0.07763197815533956 0  -0.9219866027132193 -0.1143045829323572 0  -1.394333629759332 -0.2233077430199216 0  0.09322478991596644 -0.9616596638655462 0  5.0625 -1 0  -0.14412109375 -1.92169189453125 0  -4.28125 -0.7212148987671345 0  0.2649796277366407 0.1735162902120744 0  -4.907855692236596 0.1868230509619793 0  -1.9375 1 0  1 5.0625 0  0.6915124486819284 -5.272938212550202 0  0.683483242673902 5.284948082526911 0  2.5625 -1 0  -1 -3.8125 0  -1 1.9375 0  5.0625 1 0  -1 -1.9375 0  1 5.6875 0  1 -5.6875 0  -1.9375 -1 0  -1 -2.5625 0  -1 3.1875 0  1 -3.1875 0  1 -2.5625 0  1 2.5625 0  1 3.1875 0  -5.0625 -1 0  -1 -1.3125 0  1.3125 -1 0  -1 1.3125 0  -1 3.8125 0  -1 4.4375 0  -4.4375 1 0  4.4375 -1 0  4.4375 1 0  -1.3125 1 0  1 4.4375 0  1 -4.4375 0  -1 -5.0625 0  -1 -4.4375 0  -3.1875 1 0  2.5625 1 0  1 -1.9375 0  1 -1.3125 0  5.6875 1 0  1 3.8125 0  3.1875 1 0  -3.1875 -1 0  1 -5.0625 0  1.35138038998199 0.6675097549271188 0  -0.465625 0.986328125 0  1.435958105992309 0.2563920171199723 0  1.915914614192913 -0.145782394639918 0  -0.8764440609469509 -0.5746869313612541 0  5.355194559946098 0.01566259380337612 0  -5.69333042954964 -0.5242868300459975 0  1.78125 -0.7320750794491524 0  0.7320750794491525 -3.96875 0  -0.3959075548864684 5.166422468926435 0  -4.770522389068053 -0.2123670725088856 0  -4.714160156249999 -0.69234375 0  -4.273484403713342 -0.278160994327167 0  0.9642590244517505 0.08196089404241463 0  0.3500261717645397 -4.727285205957206 0  0.6740868006020392 -4.765147848348443 0  0.6797550207247084 -1.089747806381148 0  -5.186479934354063 0.3046329157552757 0  -5.263288238215326 -0.3369092276308425 0  -2.433484016245305 0.5442571297016638 0  0.1707808983307866 -3.82363304980935 0  -0.1554012991031027 3.867535742674252 0  4.855508096805579 -0.2283975605264581 0  3.644517238097614 0.5646428152488787 0  0.05699603874439441 -0.6452791208413911 0  -0.3550018917972689 -0.5695324323732931 0  0.6
[...]
<PointData  Scalars="u"> 
<DataArray  type="Float64"  Name="u"  format="ascii">-4.5009345483881541e-01  0.0000000000000000e+00  0.0000000000000000e+00  -4.4766541313542518e-01  -8.9569894566614905e-01  -8.9569894566614905e-01  -4.4798337729459536e-01  0.0000000000000000e+00  0.0000000000000000e+00  -4.4793497156074280e-01  -8.9569894566614905e-01  -8.9569894566614905e-01  -6.8344019902131059e-01  -6.8432582326090696e-01  -6.8333032253727199e-01  -6.8383195932960150e-01  -2.1229941487248699e-01  -2.1259438502600142e-01  -2.1193975500098333e-01  -2.1249351020142782e-01  -5.7763809803049937e-01  -5.7873168043510415e-01  -3.1772430224267800e-01  -3.1787609010096546e-01  -5.7876166632896087e-01  -5.7824880244639087e-01  -7.8898397532750630e-01  -7.8970000487388015e-01  -1.0604562026545163e-01  -1.0597265723671673e-01  -3.1843725624200292e-01  -3.1808893773396357e-01  -7.9024421979231230e-01  -7.8966993575399891e-01  -1.0708997155244779e-01  -1.0601141791665170e-01  -4.4781146093865570e-01  -2.6482428844366923e-01  -3.6943780991932312e-01  -1.5898271693596716e-01  0.0000000000000000e+00  -6.3116560317062242e-01  -2.6480911167134169e-01  -8.9569894566614905e-01  -3.6917016935372210e-01  -6.3114203186986728e-01  -5.2671244069643219e-01  -5.2674095966925805e-01  -7.3695349117261266e-01  -8.9569894566614905e-01  -7.3687090293021251e-01  -1.5894817212220949e-01  0.0000000000000000e+00  -8.1629066428544961e-01  -7.9554309516437188e-02  -8.1632837639537059e-01  -7.9480578541250138e-02  -4.2685853329958534e-01  -4.6891647642978485e-01  -4.2703015798237104e-01  -4.6891489017745008e-01  -8.4266663562006372e-01  -5.3000995929190310e-02  -8.4236708450373876e-01  -5.2648941695104680e-02  -4.4540397071918247e-01  -5.4013224838714555e-02  -8.4309877081068785e-01  -8.4266833335213942e-01  -8.9569894566614905e-01  -5.2620944260783682e-02  0.0000000000000000e+00  -2.1202307864600001e-01  -2.1775192979671223e-01  -2.6480430852643527e-01  -1.5872984370688997e-01  -6.8408538559238297e-01  -6.8989422250428856e-01  -7.3689317418992417e-01  -7.3709465727302148e-01  -5.7834555968592061e-01  -5.7252218119779674e-01  -5.2411962828305247e-01  -5.2390055279507231e-01  -6.8397103771413559e-01  -6.8982322063052970e-01  -7.3689695276454692e-01  -5.7831241183659932e-01  -5.7245591767215565e-01  -7.3640911852877022e-01  -6.3159888131980724e-01  -6.3174102664970022e-01  -5.2408140908258938e-01  -3.7236301367606123e-01  -3.7200162966266159e-01  -3.1760445132310611e-01  -3.2337938246426856e-01  -1.5926074866300680e-01  -2.6485340759573134e-01  -6.3050993662142452e-01  -5.2386487555708428e-01  -6.3060294533981132e-01  -1.5919289055201993e-01  -3.1778937201314067e-01  -3.1196537500389071e-01  -2.6481658579859468e-01  -3.7254419969263464e-01  -1.5900312002796596e-01  -2.1194787960998934e-01  -2.0608676471443302e-01  -3.7231190891059063e-01  -2.6487496020114881e-01  -4.8209080796876363e-01  -4.1074613508452290e-01  -4.8535798517505813e-01  -4.0813221643361758e-01  -7.6334250881188281e-01  -7.6330697253082436e-01  -4.4019147615718922e-02  -7.6339368446819389e-01  -8.9569894566614905e-01  -4.4230893339951266e-01  -3.9707236583507449e-01  -8.9569894566614905e-01  -4.5347189557019046e-01  -1.3251694406595374e-01  -1.3244654049999319e-01  -8.9569894566614905e-01  0.0000000000000000e+00  -4.4021805138937366e-02  -1.2300841617420855e-01  -1.3249368696943395e-01  -7.6325822838725588e-01  -8.1321340430661948e-01  -8.1327497459708586e-01  -4.9923779689275438e-01  -3.9656977638625229e-01  -4.9895632734447692e-01  -8.5491433791216098e-01  -8.5335721963839684e-01  -8.7510241088978188e-02  -8.7394546143146734e-02  -1.7571653530610104e-01  -3.7880699874557715e-02  -3.7758363197411313e-02  -8.5016668923137206e-01  -8.5017291361682101e-01  0.0000000000000000e+00  -3.7338496480626515e-01  -2.4927929219804848e-01  -6.1908995985603243e-01  -6.1558084330094165e-01  -2.8032246637383240e-01  -3.6918598989951423e-01  -5.3735395665545371e-01  -6.4669550350056115e-01  -5.3160320391987093e-01  -2.5279244511097199e-01  -6.4316031817534303e-01  -2.7687027750210658e-01  0.0000000000000000e+00  -1.6533970669600520e-01  -1.7466215912010249e-01  -1.7464263200203242e-01  -7.2294317210228687e-01  -7.2272170742921227e-01  -3.5533033018524907e-01  -5.3949833992494522e-01  -7.7658528043425779e-01  -8.4367684885297708e-02  -1.1823601025863009e-01  -9.2736687338373217e-02  -8.0300341184495772e-01  -7.7759049752906373e-01  -8.1071272452723908e-01  -1.1842765357678300e-01  -2.3835213489023924e-01  -6.5426954759177713e-01  -2.9134156018320395e-01  -6.0802108604220229e-01  -6.5761136805346887e-01  -6.0459459522119230e-01  -4.4804202586359015e-01  -4.5139728110878918e-01  -4.5401804991023742e-01  -5.3574427353391851e-01  -3.6002031733856482e-01  -7.2666437060623545e-01  -7.2659562567121161e-01  -2.9081512786813069e-01  -2.3856497690162939e-01  -4.9541284859511786e-01  -4.0037500963504613e-01  -4.4274179734329983e-01  -4.5397858462055535e-01  -4.3048566135821387e-01  -4.0136952704012147e-01  -4.9434746475714675e-01  -4.5289652275071024e-01  -4.9548678876215757e-01  -3.3897529109039232e-01  -5.0449172455643387e-01  -2.6582980422338993e-02  -8.6119562710235931e-01  -2.5922320984048883e-02  -8.6296625604000154e-01  -3.2381690432003396e-02  -2.7292287916719948e-02  -3.4459814718171533e-01  -4.0046658362254500e-01  -6.6138739495924692e-01  -6.0094395827114666e-01  -2.3455685058033360e-01  -3.4445471654226523e-01  -2.9499157332433090e-01  -5.9650071071995037e-01  -6.5761752656069306e-01  -1.9062825153030197e-01  -5.1206596128413370e-02  -4.0065921642714880e-01  -3.4489500065745243e-01  -5.5813328088266112e-01  -7.0382859557639221e-01  -7.1072749661931278e-01  -3.3782303687069937e-01  -8.6877673354642937e-01  -8.6871191478680299e-01  -2.8364821595305284e-01  -2.4605282381494789e-01  -5.5086799636600325e-01  -1.8511918684471348e-01  -4.5813739103783124e-01  -7.8931131414167144e-01  -2.8592472459895546e-01  -2.4371111080304644e-01  -8.6449002175184364e-01  -6.3216760436434066e-02  -5.6622961619444678e-01  -6.9608804280174541e-01  -6.9588037596056462e-01  -8.7404617382225880e-01  -1.3225587483577569e-01  -6.1750905310030546e-01  -4.3388161434905931e-01  -4.3492462514613345e-01  -4.2606995867850456e-01  -5.1275321793487882e-01  -4.4365034036571310e-01  -3.3103686407062621e-01  -6.9723537734791163e-01  -5.6486860837038355e-01  -1.9867241754904605e-01  -2.0889443779935876e-01  -5.5282108670226637e-01  -3.2625539393023262e-01  -7.0986414483973448e-01  -7.0998667584255337e-01  -2.8988926964614375e-01  -2.3979639033841940e-01  -2.2376337842137906e-01  -5.5082760304093503e-01  -5.6629266727921712e-01  -3.4739965678535745e-01  -1.9174491187182063e-01  -6.5353347203201706e-01  -3.4593512809406290e-01  -4.6759954579957219e-01  -2.9021613596241630e-01  -6.5731102650895135e-01  -6.0490372934627112e-01  -7.9895553505736627e-01  -6.0600634842117673e-01  -6.5629457523917045e-01  -1.8206483398672160e-01  -1.8487900384437270e-01  -8.4673455074141935e-01  -1.8514195756751423e-01  -2.0196499133165213e-01  -6.1096604534525101e-01  -5.0821150425658013e-01  -4.9952840442157520e-01  -1.1020105414408243e-01  -6.6875930536289718e-01  -3.0243124045360537e-01  -5.9343922660789927e-01  -2.2719298970544724e-01  -2.6664720800687169e-02  -2.6737294681882830e-02  -4.1355825014828956e-01  -2.1717186543046693e-01  -6.7997602566462922e-01  -3.2029222220050224e-01  -3.2258715943741934e-01  -5.4872909238299306e-01  -2.4547740240344468e-01  -2.8418718795370773e-01  -3.1097875231546140e-01  -8.1704574164204979e-01  -8.2900104288933429e-01  -5.7640316606701225e-01  -6.8602958654752133e-01  -4.5856306975651939e-01  -6.6956164618016556e-01  -5.9264267329292719e-01  -1.8450028945690308e-01  -5.3284430470717480e-02  -7.0915837672434631e-02  -5.4074090336780511e-02  -7.9580860879313972e-02  -6.0514074789989450e-02  -2.6096539569333162e-02  -2.8544373774179812e-02  -4.2040334243557376e-01  -3.8805989915311218e-01  -4.7820426652899101e-01  -8.0233682284613167e-02  -5.5087316689625643e-01  -1.4574484773855997e-01  -4.4653076519585366e-01  -9.2635954059797118e-02  -3.4572749665619701e-01  -8.1580443895400512e-01  -8.3414144787811251e-01  -8.3517563372045101e-01  -2.9080438231406908e-01  -7.1082769145974956e-01  -5.5077554024855979e-01  -7.9032887675062058e-02  -5.5048676315091516e-01  -8.7007633637989834e-01  -8.7017729901394758e-01  -3.4572916838128043e-01  -6.0516221097105161e-01  -6.5699998584635333e-01  -6.5734815069981112e-01  -6.0377037764872021e-01  -6.0487033699535298e-01  -6.5850063097083622e-01  -7.9587578174847989e-02  -4.9604940857085050e-01  -4.0259102280453429e-01  -4.9586525304446993e-01  -7.1096040551227935e-01  -7.6290290565606789e-01  -1.3244950515683979e-01  -1.3212216346238012e-01  -1.3270001465464570e-01  -4.0030728841239605e-01  -7.6338422083594959e-01  -7.6303845254361169e-01  -8.1738137272537159e-01  -7.6312517576327921e-01  -2.3845366439281324e-01  -2.9162745202298690e-01  -5.5076504577544616e-01  -4.9591459119601256e-01  -2.5521819676048652e-02  -7.1099526984728445e-01  -2.3920278692544397e-01  -2.3879039558124268e-01  -8.1591413298420834e-01  -3.9581140954835586e-01  -4.7454553203778033e-01  -3.8477137206418910e-01  -3.4544638684039575e-01  -4.3259580652950602e-01  -5.4656001197251031e-02  -2.6115010641430458e-02  -3.5788795022680642e-01  -7.2365191487317460e-01  -8.2518939003992842e-01  -1.0431582589362792e-01  -1.0909367761108138e-01  -1.4641248091348560e-01  -4.1745902005223973e-01  -7.8789261402719279e-01  -7.9115826164278957e-01  -4.7734903839720816e-01  -6.8982576208447208e-02  -6.2561327686503340e-02  -3.0235411423644182e-01  -7.1138126620623809e-01  -7.1518583033534977e-01  -9.7075273849158900e-02  -1.9973033089035588e-01  -4.6175512528619211e-01  -4.5465876028080715e-01  -4.4086949769494621e-01  -4.4963800115814012e-01  -1.7535629613345771e-01  -8.0296317948401497e-01  -8.2650699479836953e-01  -8.2601757129197839e-01  -7.8816371456926493e-01  -7.5020765865242733e-01  -1.1923989667898421e-01  -1.1921554435334135e-01  -3.8549820941186391e-01  -4.1436509643625608e-01  -8.7189920211043581e-01  -5.1023616726110843e-01  -4.7441038687186288e-01  -3.8210432377279208e-01  -4.7926446624858005e-01  -5.1366447157533679e-01  -7.4784847567915602e-01  -7.4787802881224097e-01  -4.1344009744067650e-01  -5.1957636749062874e-01  -1.4028696304055588e-01  -7.8530956954775177e-01  -7.5894776234316574e-01  -7.9455988631963848e-01  -7.5004659955136110e-01  -7.8140058779786326e-01  -7.5887958443262249e-01  -4.7904370225323506e-01  -5.1033126307947307e-01  -3.8505435135049348e-01  -3.7864736985641823e-01  -7.4113204906962604e-01  -1.3684979653493121e-01  -1.5228192119046910e-01  -1.4012664907075684e-01  -1.5233797176575370e-01  -1.5506651229706642e-01  -1.1040997654671729e-01  -8.7192884177447660e-01  -7.7657457068803104e-01  -7.5007277904687375e-01  -6.2638974770154635e-02  -8.7340164830138378e-01  -3.8847056264980356e-01  -4.1442350019700336e-01  -4.3440094857648320e-01  -1.8729151687689047e-01  -4.2736353303845515e-01  -7.2376836905279485e-01  -5.3803597799310976e-01  -8.4031211042722809e-01  -8.0108854829907838e-01  -1.5434631056785592e-01  0.0000000000000000e+00  -1.0967390499728735e-01  -8.2956817010971107e-01  -1.6332679832606614e-01  -5.7139284352110009e-01  -5.3799530743530610e-01  -1.7583847815366196e-01  -7.2668379944916028e-01  -8.9569894566614905e-01  -2.2507252693040711e-01  -3.1505765522307028e-01  -4.3470851698039703e-01  -4.7546261513489840e-01  -3.5938303916808251e-01  -6.8120331685874258e-01  -5.8094495697431126e-01  -8.7184674614368540e-01  -8.7510180995096443e-01  -8.7365863786759046e-01  -1.8007330493599899e-01  -2.0099876537826123e-02  -8.3085322968121667e-01  -8.7334153430557959e-01  -7.1812672172828429e-01  -2.1094964053005098e-02  -5.9521252043191852e-01  -6.1785428811138776e-01  -6.4437865432933317e-01  -6.3408310649179633e-01  -6.2999854248376186e-01  -2.6667930156315628e-01  -2.7385148093800826e-01  -2.6291246017553366e-01  -2.5575501138852852e-01  -2.2711139208128842e-01  -3.0244256568580202e-01  -6.6882043722550932e-01  -5.9445737748905192e-01  -9.6799666437456675e-02  -1.0982803028207040e-01  -8.3851577348660056e-01  -2.1572165151185588e-01  -2.4481721214393484e-01  -2.6834539561783116e-01  -6.1019047709172591e-01  -6.5201401788949409e-01  -2.7805404685814739e-01  -5.3803727601107021e-01  -6.3395464315388084e-01  -6.7076268544569273e-01  -5.9144344382153846e-01  -4.6614585741715775e-01  -6.3381686606462595e-01  -2.6619242255671111e-01  -2.6345854553289633e-01  -6.2765097537733550e-01  -3.5830052061943246e-01  -8.9569894566614905e-01  -6.6073726172115779e-02  0.0000000000000000e+00  -1.9030169770531135e-02  -2.1457690428206461e-02  0.0000000000000000e+00  -1.6207366289275016e-01  -1.9672652966737292e-01  -8.5092097724583737e-01  -5.8590786393671435e-01  -6.7652126039320992e-01  -3.0261989372765424e-01  -8.5073282825794294e-01  -8.1235003311027654e-01  -2.9989612105942992e-01  -5.5237422975891848e-01  -1.8623714179583109e-01  -4.3888780758121726e-01  -7.4380657556929664e-01  -5.5916814391447256e-01  -2.3118721084032903e-01  -5.2847206954295267e-01  -7.4399146953168760e-01  -4.9067604649366703e-01  -3.9506212136296376e-01  -3.6816441776572323e-01  -8.3784784937009338e-01  -4.3602119137415835e-01  -5.1058308276891340e-01  -5.0428451932990193e-01  -4.9128815635988476e-01  -4.1222435526074197e-01  -5.1005692198398955e-01  -3.5701489057560176e-01  -3.4506206520310168e-01  -4.5569509074393150e-01  -4.5297062251420889e-01  -4.3056807152876098e-01  -4.2312136720811572e-01  -4.1492971547502183e-01  -3.6631824241123528e-01  -5.3172229361010681e-01  -4.2112671573684729e-01  -4.1610101223540269e-01  -4.7060802105247329e-01  -4.6443187823136556e-01  -4.5704421332763595e-01  -4.2773635421231088e-01  -4.7501338809551846e-01  -4.7192303893508830e-01  -4.4684680445893599e-01  -4.4902394386332900e-01  -4.4746888429964071e-01  -4.2482775671264061e-01  -4.4788539025681073e-01  -4.4134749360099645e-01  -4.4585965968484059e-01  -4.5145135755377730e-01  -4.5693743116481972e-01  -5.1144371098170249e-01  -4.0861116137293724e-01  -5.3528256335998847e-01  -5.5166492999782035e-01  -3.9964738676850575e-01  -3.8514733896830550e-01  -3.4570445777287728e-01  -3.4171213378989279e-01  -4.9423949292284147e-01  -3.6229124251389561e-01  -3.5871688147864816e-01  -3.5635064265883820e-01  -5.1600311101870777e-01  -5.1893271239066652e-01  -4.0126032459918354e-01  -4.3955311233521388e-01  -4.4242381213223941e-01  -4.4064447056174422e-01  -4.5036125193106119e-01  -3.7066977553188540e-01  -4.0006160754981646e-01  -4.5473963357452013e-01  -4.5949626346188505e-01  -5.4031374539459454e-01  -3.9817224916200844e-01  -4.9751986136533533e-01  -4.8724503239909417e-01  -4.9552331453673493e-01  -4.1485770289507373e-01  -5.2130718252139741e-01  -5.4515047824790808e-01  -5.3764199566424553e-01  -5.3965256742328194e-01  -5.3318987994212907e-01  -5.5268123275784897e-01  -5.5897994257968853e-01  -4.6195006839877506e-01  -4.6092456125474762e-01  -5.3866116032120726e-01  -4.9426259056165134e-01  -3.8973236663352534e-01  -4.2976758547644756e-01  -4.4939106111090499e-01  -4.4652982992065698e-01  -4.6330859784646311e-01  -4.6705571759035386e-01  -4.5526454483541773e-01  -4.1141794509709012e-01  -4.0088843970333632e-01  -3.8591524041496755e-01  -5.0502314401271120e-01  -5.1937714954963476e-01  -4.6202885541204325e-01  -4.4910013972543905e-01  -4.9034840493758136e-01  -3.8063669836934011e-01  -3.7310359665893872e-01  -3.5849322790330668e-01  -3.8413004678846846e-01  -3.5367308112870111e-01  -3.4264940930893223e-01  -4.4505497406845301e-01  -4.6417856151681269e-01  -4.6936631719275457e-01  -4.1258986049916435e-01  -4.0309164966208672e-01  -4.2610805099247501e-01  -4.5411995166651209e-01  -4.4133313106525857e-01  -3.8203428877327228e-01  -4.8026090368510815e-01  -4.8898084407247910e-01  -4.3670527791595043e-01  -4.0534180103994899e-01  -4.8130722993368391e-01  -5.3131333259105973e-01  -5.5408145514646823e-01  -5.3894448283020158e-01  -5.1740383353248687e-01  -4.3532226601843127e-01  -4.1620134130845710e-01  -4.8634260229675136e-01  -5.1019820140662742e-01  -4.1765970500356653e-01  -5.1410552150247224e-01  -5.0223954712468233e-01  -3.4632637917676212e-01  -3.3382104353800501e-01  -3.6446825624530371e-01  -4.2449909194488739e-01  -3.7147060931459375e-01  -3.7231185006577622e-01  -3.7825275777234774e-01  -3.8593007179947580e-01  -4.1446401727819587e-01  -4.8456937790242149e-01  -4.4686991913195079e-01  -4.8269233629575520e-01  -5.0739909765011593e-01  -4.8600609393046323e-01  -3.6581976483037831e-01  -3.8985914878222205e-01  -3.8040316627196508e-01  -4.1386980300605236e-01  -4.3218338255846367e-01  -4.3890549652996813e-01  -5.2440714161166768e-01  -5.2545635129775414e-01  -4.4470935954971907e-01  -4.4924548497714867e-01  -4.8269860737237003e-01  -3.7731243455960917e-01  -4.4293545355673219e-01  -4.3656481774003070e-01  -5.4423540861245345e-01  -5.1754907323797783e-01  -5.1951453765388877e-01  -4.7891303333176333e-01  -4.8092351826048074e-01  -3.9946353917575878e-01  -3.8084549870963297e-01  -3.7870469476508611e-01  -4.3838519818442379e-01  -4.3354546966517515e-01  -4.4141671094083706e-01  -4.4797523652793453e-01  -4.4836407678486767e-01  -4.5920000543217582e-01  -4.6307901231845056e-01  -4.3350969992129640e-01  -4.3620525888411887e-01  -4.2793109468332652e-01  -4.2123057722975954e-01  -4.2120693471532000e-01  -4.1730200785023841e-01  -4.1119586414910142e-01  -4.2497923703344620e-01  -4.2914941246798743e-01  -4.7432365906374219e-01  -4.5115083684054519e-01  -4.5987017118812895e-01  -4.6238030083560305e-01  -4.5805882319816971e-01  -4.6227712902103202e-01  -4.3663525380728829e-01  -4.2070952589191246e-01  -4.7238410573003031e-01  -4.6893108193927430e-01  -4.3815180037297274e-01  -4.4351888761936009e-01  -4.4094069388137846e-01  -4.4818733631914481e-01  -4.5483748106717664e-01  -4.5399626703821239e-01  -4.4677490297680861e-01  -4.4550132869828601e-01  -4.4999930610216521e-01  -4.3013137293630505e-01  -4.5253053213341904e-01  -4.4414208803320615e-01  -4.4990502673437632e-01  -4.5127523424390475e-01  -4.5572193457538340e-01  -4.4885877768968013e-01  -4.4820208540504980e-01  -4.4009584081011055e-01  -4.4618014508904746e-01  -4.4125025086215741e-01  -4.3785995676217965e-01  -4.4536806096147130e-01  -4.4283896723125876e-01  -4.3865668101677580e-01  -4.4239619415157799e-01  -4.4246275649517364e-01  -4.5703021830559909e-01  -4.5172308147143281e-01  -4.5811930049703187e-01  -4.5128557387914520e-01  -4.6156565634480501e-01  -4.6549027367861867e-01  -4.6908553661528218e-01  -4.6260433158933512e-01  -4.5641952149888182e-01  -4.2175624685175012e-01  -4.3184404881942839e-01  -4.3430464860705570e-01  -4.4750878770869729e-01  -4.4787318680558275e-01  -4.5093771927448251e-01  -4.4828152035263935e-01  -4.4649343610359432e-01  -4.7374503256457984e-01  -4.5961093405735648e-01  -4.7177986150758361e-01  -4.6282519485242801e-01  -4.5531267052656332e-01  -4.4778009364027538e-01  -4.7390327760861084e-01  -4.6531651328468804e-01  -4.6816283723865620e-01  -4.2173276761079054e-01  -4.3052882231468381e-01  -4.3168145826320103e-01  -4.2391266072820488e-01  -4.4841697387098362e-01  -4.3704900233845534e-01  -4.3043388804526200e-01  -4.3483573655072683e-01  -4.2205261362138702e-01  -4.1561490023656095e-01  -4.4562516570963812e-01  -4.4347648304228526e-01  -4.4788090706276756e-01  -4.4574816865643407e-01  -4.5209774944735248e-01  -4.4840052763350480e-01  -4.3914415314742816e-01  -4.4038570458406556e-01  -4.7487265024137171e-01  -4.7471598158361511e-01  </DataArray> 
</PointData> 
</Piece>
</UnstructuredGrid>
</VTKFile>