<?xml version="1.0"?>
<VTKFile type="UnstructuredGrid"  version="0.1"  >
<UnstructuredGrid>
<Piece  NumberOfPoints="778" NumberOfCells="1401">
<Points>
<DataArray  type="Float64"  NumberOfComponents="3"  format="ascii">1 -1 0  6 -1 0  6 1 0  1 1 0  1 6 0  -1 6 0  -1 1 0  -6 1 0  -6 -1 0  -1 -1 0  -1 -6 0  1 -6 0  1 3.5 0  -1 3.5 0  -1 -3.5 0  1 -3.5 0  3.5 -1 0  3.5 1 0  -3.5 -1 0  -3.5 1 0  -1 -2.25 0  1 -2.25 0  2.25 -1 0  2.25 1 0  -1 2.25 0  1 2.25 0  -1 4.75 0  1 4.75 0  -4.75 -1 0  -4.75 1 0  -2.25 1 0  -2.25 -1 0  1 -4.75 0  -1 -4.75 0  4.75 1 0  4.75 -1 0  0 0 0  -2.875 0 0  -1.625 0 0  -4.125 0 0  -6 0 0  0 2.875 0  2.875 0 0  0 6 0  1.625 0 0  0 -2.875 0  0 -1.625 0  0 1.625 0  0 4.125 0  0 -6 0  0 -4.125 0  4.125 0 0  6 0 0  -0.109375 5.0625 0  -5.0625 -0.109375 0  -0.109375 -5.0625 0  5.0625 0.109375 0  0.8125 -0.1875 0  -0.1875 -0.8125 0  -0.8125 0.1875 0  -0.1875 0.8125 0  1 5.375 0  -5.375 1 0  1 -5.375 0  5.375 -1 0  0.53515625 0.46484375 0  -5.375 -1 0  -1 5.375 0  -1 -5.375 0  -0.5 -6 0  5.375 1 0  6 0.5 0  3.5 0.3046875 0  3.43125 -0.34765625 0  2.875 -1 0  4.125 1 0  0.3046875 3.5 0  -0.34765625 3.56875 0  -1 4.125 0  1 4.125 0  -0.3046875 2.25 0  0.34765625 2.18125 0  1 1.625 0  -1 -1.625 0  -0.3046875 -3.5 0  0.34765625 -3.56875 0  1 -4.125 0  0.3046875 -2.25 0  -0.34765625 -2.18125 0  -1 -4.125 0  -1 -2.875 0  1 -2.875 0  1 -1.625 0  1.625 -1 0  1.625 1 0  2.25 0.3046875 0  2.18125 -0.34765625 0  4.125 -1 0  2.875 1 0  1 2.875 0  -1 1.625 0  -1 2.875 0  -4.125 -1 0  -2.25 0.3046875 0  -2.31875 -0.34765625 0  -2.875 -1 0  -1.625 1 0  -4.125 1 0  -3.5 0.3046875 0  -3.56875 -0.34765625 0  -1.625 -1 0  -2.875 1 0  0.380626321794301 1.06853329530276 0  -1.110819327731092 -0.3739495798319328 0  0.3739495798319328 -1.110819327731092 0  1.151210293219304 0.3991939332620648 0  -0.5 -4.4375 0  0.5 -4.4375 0  5.481553398058253 -0.3712833737864077 0  0.5 4.4375 0  0.5 6 0  -0.522503783594538 -0.3265648647465863 0  -1.3125 0.5 0  -0.5 6 0  0.3265648647465863 -0.522503783594538 0  4.4375 0.5 0  4.4375 -0.5 0  0.5 -6 0  -6 -0.5 0  -5.481553398058253 0.3712833737864077 0  -4.55 -0.4296875 0  -4.4375 0.5 0  -0.5 4.4375 0  0.4792930825242718 5.026881067961165 0  0.4792930825242718 -5.026881067961165 0  -0.5 1.3125 0  1.3125 -0.5 0  -0.5 -1.3125 0  0.25 5.518539952962044 0  0.2125133872612723 -5.500076563152851 0  4.969341874373811 -0.5152550785163683 0  -4.969341874373811 0.5152550785163683 0  3.927189744345589 -0.4712876597840069 0  -5.554036458333333 -0.25 0  5.554036458333333 0.25 0  -0.4690710616438356 -5.462756849315069 0  -0.4690710616438356 5.462756849315069 0  -6 0.5 0  -1.59556436210848 -0.5 0  -3.058421751829955 -0.5 0  -0.5 2.731982421875 0  0.5 2.691578248170045 0  2.691578248170045 -0.5 0  1.641211254104555 0.5 0  0.5 -1.768017578125 0  0.5 -3.058421751829955 0  0.5 1.699267578125 0  3.018017578125 0.5 0  -0.5 -3.018017578125 0  -2.731982421875 0.5 0  6 -0.5 0  -4.050017120925308 -0.5006099332648871 0  -3.940668202764977 0.5371363767281105 0  3.940668202764977 0.5371363767281105 0  0.4517449476047904 3.958458083832335 0  -0.4517449476047904 -3.958458083832335 0  -1.809331797235023 0.5371363767281105 0  -0.4517449476047904 1.791541916167665 0  -0.0546875 4.59375 0  -5.006445312499999 -0.58984375 0  4.605643203883496 -0.04725424757281554 0  4.90625 0.5546875 0  -0.5546875 4.90625 0  0.04725424757281554 -4.605643203883496 0  -0.586116118210531 -4.995821561900013 0  -4.603710222472543 0.04846236095466061 0  -3.1875 0.65234375 0  0.6163907621110913 3.147502300973589 0  2.5625 0.65234375 0  0.6163907621110913 -2.602497699026411 0  -0.637456713551384 3.189259902731882 0  -0.637456713551384 -2.560740097268118 0  -0.34765625 0.34765625 0  -0.639453125 0.708203125 0  0.089630126953125 0.437286376953125 0  -0.4238281249999999 -1.746875 0  1.746875 -0.4238281249999999 0  -0.4238281249999999 4.003125 0  0.4238281249999999 -4.003125 0  -2.5625 -1 0  3.1875 -1 0  -0.09375 -1.21875 0  1.21875 -0.09375 0  0.4020305405760241 -0.1120343241705621 0  -0.6280191027904287 -0.7577505545748082 0  0.90625 -0.59375 0  -1.205500904741459 0.03633725387965409 0  -0.02129048848213058 1.202028574265107 0  -0.1120343241705621 -0.4020305405760241 0  1 1.3125 0  -2.003587563743074 -0.6442361556699288 0  0.6640077663259718 -1.395873598614549 0  5.6875 -1 0  0.6308138580859101 -5.592151086468728 0  -5.6875 -1 0  0.6568032075915271 5.612942566073222 0  5.616530031741774 0.6612875396772174 0  -5.6875 1 0  1.9375 1 0  -1.3125 -1 0  0.1524679547155687 -3.232579139388032 0  0.1524679547155687 2.517420860611968 0  -3.232579139388032 -0.1524679547155687 0  -1.932320553757026 -0.252759244693845 0  2.517420860611968 -0.1524679547155687 0  -0.04776045819569434 -2.464949198504599 0  -0.2420369079104247 3.187693796852321 0  3.751304711039982 -0.1203080877045035 0  -5.397601941771943 -0.609026059866711 0  1.3125 1 0  1.9375 -1 0  -0.6946315101963667 -2.018229242739021 0  -0.6946315101963667 3.731770757260979 0  1 -3.8125 0  2.014364435550335 0.6166648446293641 0  -1 5.6875 0  -1 -5.6875 0  -2.653476149871182 -0.5942957192996303 0  3.096523850128818 -0.5942957192996303 0  1 1.9375 0  -3.8125 -1 0  0.586975531244212 -0.7975955463807081 0  -0.2946248980953088 -4.743710873809568 0  2.625453376770019 0.2814788818359375 0  -3.124546623229981 0.2814788818359375 0  -0.1204856417894853 5.631800603217465 0  5.253862011026742 0.6581468962876398 0  -0.65234375 2.108701557941197 0  0.65234375 3.641298442058803 0  -0.65234375 -3.641298442058803 0  -0.25 -5.744880569758637 0  -4.4375 -1 0  -0.3166212631734941 -2.713595940002554 0  0.6591479224207506 0.1324305912687024 0  0.8660781906552419 0.6468634238104103 0  -0.9887189158197679 0.6452930723873549 0  0.3149351927204296 -1.460971774996065 0  -0.3572852727880474 -0.009629022788047503 0  2.09375 -0.6866724363772454 0  0.6866724363772454 -3.65625 0  0.6866724363772454 2.09375 0  -3.65625 -0.6866724363772454 0  -3.5371337890625 0.65234375 0  -0.1389584113023952 1.944025352615082 0  -2.151744288472698 0.65234375 0  -0.1389584113023951 -3.805974647384918 0  0.1389584113023951 3.805974647384918 0  -2.578772109813904 0.1857224367977529 0  3.171227890186096 0.1857224367977529 0  3.360315647536819 0.65234375 0  0.1857224367977528 -1.921227890186096 0  0.65234375 -2.110315647536819 0  1.894016528727564 0.2415406141485869 0  -3.738232421875 0 0  0.2516875549238616 3.139069895099618 0  -1.913724396854074 0.2011142179916434 0  0.1669456568161915 0.7843410671359501 0  -2.5625 1 0  -1 -3.1875 0  -1 2.5625 0  0.1736601499778735 4.857955663330752 0  -0.1893536587212888 2.577300639071919 0  -0.1893536587212888 -3.172699360928081 0  3.852271904453858 0.206603749322895 0  -3.8125 1 0  -0.1250095034621793 -5.421707592768541 0  3.8125 -1 0  3.617304217264373 -0.6578427703661498 0  0.2630176195580202 -2.636558318495885 0  0.2674330357770522 1.399517071108871 0  0.631726413079416 1.339254523727593 0  4.700571879807737 0.2813704945051134 0  0.7143844363649634 -3.319538455208831 0  2.430461544791169 -0.7143844363649634 0  0.7143844363649634 2.430461544791169 0  -3.319538455208831 -0.7143844363649634 0  5.687045771608623 -0.6520598572553891 0  -5.687045771608623 0.6520598572553891 0  -1.15625 -0.7048248829733235 0  3.438284572973296 -0.01860298867862281 0  -0.03021088078697859 3.451572359862192 0  2.216682837011589 -0.02159585961918548 0  -2.191580885932936 -0.03126387444658879 0  0.1857410764408683 1.895679405349457 0  3.103473238297955 -0.253270943723272 0  -2.646526761702045 -0.253270943723272 0  -2.333137350671861 -0.6791984914172315 0  -1 5.0625 0  -0.6971235589909319 5.213002544375844 0  0.01618705363819947 2.225929180591695 0  0.01618705363819947 -3.524070819408305 0  0.5690054882403073 0.7951310720450595 0  -0.5764940424412852 -3.329579265180942 0  -0.5764940424412852 2.420420734819058 0  3.8125 1 0  -5.372163860234628 0.04365139563106807 0  5.164108319316826 -0.225040894204947 0  -5.361952437854323 0.6744012088984681 0  -5.0625 1 0  5.286835586913878 -0.6616705837083201 0  -5.692815197359722 0.1186699900166531 0  5.663425996156958 -0.07763197815533956 0  -0.9219866027132193 -0.1143045829323572 0  -1.394333629759332 -0.2233077430199216 0  0.09322478991596644 -0.9616596638655462 0  5.0625 -1 0  -0.14412109375 -1.92169189453125 0  -4.28125 -0.7212148987671345 0  0.2649796277366407 0.1735162902120744 0  -4.907855692236596 0.1868230509619793 0  -1.9375 1 0  1 5.0625 0  0.6915124486819284 -5.272938212550202 0  0.683483242673902 5.284948082526911 0  2.5625 -1 0  -1 -3.8125 0  -1 1.9375 0  5.0625 1 0  -1 -1.9375 0  1 5.6875 0  1 -5.6875 0  -1.9375 -1 0  -1 -2.5625 0  -1 3.1875 0  1 -3.1875 0  1 -2.5625 0  1 2.5625 0  1 3.1875 0  -5.0625 -1 0  -1 -1.3125 0  1.3125 -1 0  -1 1.3125 0  -1 3.8125 0  -1 4.4375 0  -4.4375 1 0  4.4375 -1 0  4.4375 1 0  -1.3125 1 0  1 4.4375 0  1 -4.4375 0  -1 -5.0625 0  -1 -4.4375 0  -3.1875 1 0  2.5625 1 0  1 -1.9375 0  1 -1.3125 0  5.6875 1 0  1 3.8125 0  3.1875 1 0  -3.1875 -1 0  1 -5.0625 0  1.35138038998199 0.6675097549271188 0  -0.465625 0.986328125 0  1.435958105992309 0.2563920171199723 0  1.915914614192913 -0.145782394639918 0  -0.8764440609469509 -0.5746869313612541 0  5.355194559946098 0.01566259380337612 0  -5.69333042954964 -0.5242868300459975 0  1.78125 -0.7320750794491524 0  0.7320750794491525 -3.96875 0  -0.3959075548864684 5.166422468926435 0  -4.770522389068053 -0.2123670725088856 0  -4.714160156249999 -0.69234375 0  -4.273484403713342 -0.278160994327167 0  0.9642590244517505 0.08196089404241463 0  0.3500261717645397 -4.727285205957206 0  0.6740868006020392 -4.765147848348443 0  0.6797550207247084 -1.089747806381148 0  -5.186479934354063 0.3046329157552757 0  -5.263288238215326 -0.3369092276308425 0  -2.433484016245305 0.5442571297016638 0  0.1707808983307866 -3.82363304980935 0  -0.1554012991031027 3.867535742674252 0  4.855508096805579 -0.2283975605264581 0  3.644517238097614 0.5646428152488787 0  0.05699603874439441 -0.6452791208413911 0  -0.3550018917972689 -0.5695324323732931 0  0.6
[...]
<PointData  Scalars="u"> 
<DataArray  type="Float64"  Name="u"  format="ascii">-5.0329471044181218e-01  0.0000000000000000e+00  0.0000000000000000e+00  -4.9985900586954168e-01  -9.9981590614705018e-01  -9.9981590614705018e-01  -5.0031858028264531e-01  0.0000000000000000e+00  0.0000000000000000e+00  -5.0022054553958739e-01  -9.9981590614705018e-01  -9.9981590614705018e-01  -7.6345893781754581e-01  -7.6434313478383153e-01  -7.6334511895300461e-01  -7.6388785243801882e-01  -2.3628848266539174e-01  -2.3680736164482297e-01  -2.3602133333342010e-01  -2.3675929183468114e-01  -6.4568826944369806e-01  -6.4678904347376742e-01  -3.5386769905291338e-01  -3.5397535651209511e-01  -6.4677753903334412e-01  -6.4627575461589570e-01  -8.8104548880914912e-01  -8.8179422007298802e-01  -1.1820023739554908e-01  -1.1803618272660167e-01  -3.5453553141795768e-01  -3.5431624280482343e-01  -8.8238270948102693e-01  -8.8185244438394128e-01  -1.1915279111530272e-01  -1.1801111997987009e-01  -4.9944559200869026e-01  -2.9493492659068421e-01  -4.1156869123679868e-01  -1.7706119850437532e-01  0.0000000000000000e+00  -7.0517937072135994e-01  -2.9489176961909014e-01  -9.9981590614705018e-01  -4.1126388678417769e-01  -7.0516875187970562e-01  -5.8862882727262067e-01  -5.8864317458477655e-01  -8.2301147583694578e-01  -9.9981590614705018e-01  -8.2294809262888191e-01  -1.7698664082744889e-01  0.0000000000000000e+00  -9.1138451417405597e-01  -8.8598399070593623e-02  -9.1142456654083503e-01  -8.8501285252585202e-02  -4.7588978015151040e-01  -5.2344880693119522e-01  -4.7608489922245351e-01  -5.2344176698227873e-01  -9.4078413144258111e-01  -5.8888531262143863e-02  -9.4045302940434872e-01  -5.8588528277894000e-02  -4.9683237497006871e-01  -6.0166194904933148e-02  -9.4121833548556100e-01  -9.4077427631506538e-01  -9.9981590614705018e-01  -5.8661666213549332e-02  0.0000000000000000e+00  -2.3609120616079554e-01  -2.4247721025143895e-01  -2.9498324916495267e-01  -1.7672798564106140e-01  -7.6411217903054618e-01  -7.7058908771995616e-01  -8.2294428890729598e-01  -8.2313941598310203e-01  -6.4632522491723043e-01  -6.3983839780952168e-01  -5.8624450490226276e-01  -5.8587329430839907e-01  -7.6401906169413436e-01  -7.7053525975776826e-01  -8.2294809786316681e-01  -6.4631292055065637e-01  -6.3979265765273718e-01  -8.2241229498354296e-01  -7.0561035388636106e-01  -7.0579930163448878e-01  -5.8617492850144892e-01  -4.1450738597581877e-01  -4.1412968958424634e-01  -3.5370984371396175e-01  -3.6015199394369574e-01  -1.7732281538814931e-01  -2.9485248023794020e-01  -7.0450769112949274e-01  -5.8596139956557791e-01  -7.0462602560407328e-01  -1.7730418635732895e-01  -3.5392729656795663e-01  -3.4743597678061899e-01  -2.9486859101468266e-01  -4.1483461319239329e-01  -1.7721965981381643e-01  -2.3605608134215492e-01  -2.2952516132714562e-01  -4.1444854618156768e-01  -2.9492445569211745e-01  -5.3845866004603005e-01  -4.5778763073410300e-01  -5.4216700858521338e-01  -4.5485529654217949e-01  -8.5244032932985425e-01  -8.5239617083651609e-01  -4.9018088974760815e-02  -8.5246255595423448e-01  -9.9981590614705018e-01  -4.9328625757349071e-01  -4.4238622238522879e-01  -9.9981590614705018e-01  -5.0591896892734034e-01  -1.4754245573025168e-01  -1.4747794220485200e-01  -9.9981590614705018e-01  0.0000000000000000e+00  -4.9019374994942772e-02  -1.3700489607262947e-01  -1.4757473386326017e-01  -8.5233496324965996e-01  -9.0796584267272917e-01  -9.0803310186252750e-01  -5.5799449479788421e-01  -4.4184922111324293e-01  -5.5768888916631121e-01  -9.5440260871404614e-01  -9.5266982334649808e-01  -9.7423288789384846e-02  -9.7319860364188993e-02  -1.9565776762591536e-01  -4.2185357501718868e-02  -4.2058326782487630e-02  -9.4911488709826031e-01  -9.4912009065283898e-01  0.0000000000000000e+00  -4.1590091293871945e-01  -2.7762611072309024e-01  -6.9173221952706054e-01  -6.8783885898819686e-01  -3.1217807590329005e-01  -4.1119969826119329e-01  -6.0067192421650528e-01  -7.2248609133448949e-01  -5.9423422996377984e-01  -2.8148420142240999e-01  -7.1856968398436161e-01  -3.0835207477705073e-01  0.0000000000000000e+00  -1.8413955764233469e-01  -1.9455962971333582e-01  -1.9449923378561565e-01  -8.0739791403531092e-01  -8.0719644690831904e-01  -3.9571276962890256e-01  -6.0300927043898545e-01  -8.6716530603512243e-01  -9.3992118483379669e-02  -1.3164875850986210e-01  -1.0326218244803738e-01  -8.9660846431986418e-01  -8.6829637907433210e-01  -9.0516963264992867e-01  -1.3188916423198227e-01  -2.6543222292663771e-01  -7.3091489397161868e-01  -3.2442076616144505e-01  -6.7944232096848878e-01  -7.3467081802713552e-01  -6.7560881183550825e-01  -4.9974279765700957e-01  -5.0369971005570002e-01  -5.0650676615491086e-01  -5.9885623770484353e-01  -4.0100037100425157e-01  -8.1155151779883650e-01  -8.1149687640331158e-01  -3.2390499579612742e-01  -2.6564585432605192e-01  -5.5344950643845392e-01  -4.4617676202705153e-01  -4.9374732045079578e-01  -5.0661786676332843e-01  -4.8008459423175526e-01  -4.4730481391586918e-01  -5.5220543936405697e-01  -5.0523000563336629e-01  -5.5521627230153336e-01  -3.7747833623192273e-01  -5.6398942240299632e-01  -2.9774081229619782e-02  -9.6138868241135755e-01  -2.8892200984237618e-02  -9.6335167476397432e-01  -3.6094327621417038e-02  -3.0460421190856270e-02  -3.8361466100982722e-01  -4.4546067254612071e-01  -7.3885855660597699e-01  -6.7150824179409951e-01  -2.6122870980864316e-01  -3.8365319548986987e-01  -3.2852351846633820e-01  -6.6657546374220589e-01  -7.3465130888002839e-01  -2.1225974529640299e-01  -5.7027202245196223e-02  -4.4571719628662232e-01  -3.8398709234920148e-01  -6.2394162998861857e-01  -7.8609001478786555e-01  -7.9379759463655397e-01  -3.7621465876233962e-01  -9.6978588112170594e-01  -9.6974102139282348e-01  -3.1590386466982279e-01  -2.7401286277454373e-01  -6.1588791688913014e-01  -2.0621168755111569e-01  -5.1136451413481920e-01  -8.8134628725420927e-01  -3.1841496386435125e-01  -2.7143039326654739e-01  -9.6506773803210055e-01  -7.0416699653000028e-02  -6.3287752823987808e-01  -7.7749517117759614e-01  -7.7728620871010767e-01  -9.7571022966433130e-01  -1.4728247402596759e-01  -6.8998984315987466e-01  -4.8379111624566368e-01  -4.8487514818981964e-01  -4.7500738216876459e-01  -5.7303356422539742e-01  -4.9476048735533018e-01  -3.6865748620371624e-01  -7.7879393829775811e-01  -6.3137578431220287e-01  -2.2127548958490226e-01  -2.3266142171891413e-01  -6.1782710099988158e-01  -3.6327903478950802e-01  -7.9286233735598388e-01  -7.9296553283120752e-01  -3.2284091136708265e-01  -2.6701532774017755e-01  -2.4910915497140670e-01  -6.1562922072106441e-01  -6.3296988650338670e-01  -3.8693807134328095e-01  -2.1354627695157902e-01  -7.3009284860438806e-01  -3.8529792960430975e-01  -5.2195197464897958e-01  -3.2329406828049650e-01  -7.3427432505676837e-01  -6.7599787105756060e-01  -8.9208204563289994e-01  -6.7715607204693062e-01  -7.3318478110470409e-01  -2.0271453768702871e-01  -2.0593098549230779e-01  -9.4528651722165724e-01  -2.0616590055061085e-01  -2.2489034000791430e-01  -6.8269797452428116e-01  -5.6790957505628148e-01  -5.5830356720868035e-01  -1.2271258890681408e-01  -7.4709472550740508e-01  -3.3681446061834258e-01  -6.6315639906027890e-01  -2.5301691981047908e-01  -2.9707115154216257e-02  -2.9779466374871798e-02  -4.6081004871032361e-01  -2.4182110302721996e-01  -7.5954200791461923e-01  -3.5672057752950498e-01  -3.5928148093014889e-01  -6.1326831114340763e-01  -2.7335782939362879e-01  -3.1649894395311901e-01  -3.4633668667542317e-01  -9.1221950559052611e-01  -9.2549064454687424e-01  -6.4414419364061859e-01  -7.6631091667143258e-01  -5.1176637313732565e-01  -7.4799594068525099e-01  -6.6226111616025207e-01  -2.0546792791840099e-01  -5.9341007551377119e-02  -7.8959176889092236e-02  -6.0197493977335918e-02  -8.8581561189050306e-02  -6.7366581442841619e-02  -2.9052828671395005e-02  -3.1779884919819493e-02  -4.6864019928434569e-01  -4.3238511764928400e-01  -5.3396977665014911e-01  -8.9282345006022779e-02  -6.1567865857814708e-01  -1.6231286595336997e-01  -4.9801056222178558e-01  -1.0316686655587733e-01  -3.8473406296489732e-01  -9.1091083383267468e-01  -9.3129475652951599e-01  -9.3243492962594032e-01  -3.2388254254816845e-01  -7.9403403321992894e-01  -6.1572939245940428e-01  -8.8021492194779810e-02  -6.1557801699888914e-01  -9.7118467573031797e-01  -9.7130836691255107e-01  -3.8486536368619739e-01  -6.7628943892000126e-01  -7.3399663637792845e-01  -7.3441250870353392e-01  -6.7475153609590977e-01  -6.7585622749961594e-01  -7.3560037758429653e-01  -8.8689686183056102e-02  -5.5587088152815844e-01  -4.4824134377783165e-01  -5.5579078091475997e-01  -7.9405809992962284e-01  -8.5196577164292686e-01  -1.4745271423497811e-01  -1.4715803662507823e-01  -1.4773244205824945e-01  -4.4531326655306253e-01  -8.5244809939817601e-01  -8.5212991317376219e-01  -9.1253099167932417e-01  -8.5217341340159769e-01  -2.6552471206433198e-01  -3.2468488575012827e-01  -6.1580496796269579e-01  -5.5557659293300277e-01  -2.8524137606374962e-02  -7.9404698468897716e-01  -2.6626985024545818e-01  -2.6590023874456586e-01  -9.1099103080999777e-01  -4.4098327156396561e-01  -5.2995573922515937e-01  -4.2868689794048687e-01  -3.8477062376430754e-01  -4.8245211241421143e-01  -6.0864286885723248e-02  -2.9108406502374569e-02  -3.9853526702362208e-01  -8.0820557029387186e-01  -9.2130865067117163e-01  -1.1617659756771716e-01  -1.2149029031815393e-01  -1.6305929948973277e-01  -4.6534476408877878e-01  -8.7976574791370876e-01  -8.8340194926733451e-01  -5.3358933020048138e-01  -7.6827712299923800e-02  -6.9691178156334105e-02  -3.3672883227134465e-01  -7.9454889243918692e-01  -7.9876084713872353e-01  -1.0807834081123394e-01  -2.2239394200943693e-01  -5.1529548208497888e-01  -5.0727651915786853e-01  -4.9169039800073611e-01  -5.0152290850550374e-01  -1.9529608794555170e-01  -8.9656824808624536e-01  -9.2277070480881340e-01  -9.2222503692910107e-01  -8.8006228191428904e-01  -8.3776828662820679e-01  -1.3271797010593697e-01  -1.3275284004722668e-01  -4.2930305302257332e-01  -4.6188639032080397e-01  -9.7334551720196794e-01  -5.7015817695276516e-01  -5.3023182460043028e-01  -4.2570842554714883e-01  -5.3526349362563330e-01  -5.7404702359158732e-01  -8.3517222367461696e-01  -8.3518701218023306e-01  -4.6080740451500724e-01  -5.8102069688849423e-01  -1.5624239030368203e-01  -8.7690602906373949e-01  -8.4753989029025123e-01  -8.8718042271419839e-01  -8.3761986144258538e-01  -8.7255892207392627e-01  -8.4743508956154268e-01  -5.3580331264267955e-01  -5.7069363031397058e-01  -4.2900940291005302e-01  -4.2160208875219207e-01  -8.2773063611409003e-01  -1.5237359248978097e-01  -1.6958433122498037e-01  -1.5603120868323470e-01  -1.6968252400320866e-01  -1.7266206866820533e-01  -1.2296337405403814e-01  -9.7337405260212750e-01  -8.6715480549066104e-01  -8.3766349287057584e-01  -6.9753380250081182e-02  -9.7499726553330257e-01  -4.3268447764759738e-01  -4.6167335263372400e-01  -4.8436053226334619e-01  -2.0857837502492191e-01  -4.7648796709778729e-01  -8.0828226332569941e-01  -6.0151704670646655e-01  -9.3813375956106593e-01  -8.9446115449063990e-01  -1.7185335810447347e-01  0.0000000000000000e+00  -1.2213602293118353e-01  -9.2612592242923075e-01  -1.8189569635117889e-01  -6.3857878833064674e-01  -6.0151513549429192e-01  -1.9583459358571556e-01  -8.1155173084315735e-01  -9.9981590614705018e-01  -2.5059394544647817e-01  -3.5084251224318397e-01  -4.8480089924812214e-01  -5.3144421039401180e-01  -4.0019919777427193e-01  -7.6090689899895259e-01  -6.4932240324108892e-01  -9.7325741899632146e-01  -9.7687825253593563e-01  -9.7527893759384343e-01  -2.0049284490351693e-01  -2.2373432912984950e-02  -9.2761491215935521e-01  -9.7492165948354481e-01  -8.0206777460092926e-01  -2.3482179526982196e-02  -6.6513992037933889e-01  -6.9037357837593216e-01  -7.1988516699661087e-01  -7.0845050214510530e-01  -7.0387960090270063e-01  -2.9698478757641922e-01  -3.0497133627185624e-01  -2.9279613681660399e-01  -2.8483380601060637e-01  -2.5293929926099390e-01  -3.3681929512847486e-01  -7.4713877233166626e-01  -6.6429274827808227e-01  -1.0773976936193649e-01  -1.2228183904375330e-01  -9.3613744585542036e-01  -2.4025263739920849e-01  -2.7256910055265388e-01  -2.9880949660467054e-01  -6.8181366961760992e-01  -7.2842503453180441e-01  -3.0965574939886614e-01  -6.0159450879495013e-01  -7.0828177539517723e-01  -7.4925215320800076e-01  -6.6094619754133588e-01  -5.2034283944864168e-01  -7.0817314784637031e-01  -2.9645932485812987e-01  -2.9338549118547702e-01  -7.0125003450348333e-01  -3.9893693299017718e-01  -9.9981590614705018e-01  -7.3506919054264847e-02  0.0000000000000000e+00  -2.1188103080191777e-02  -2.3903423815236559e-02  0.0000000000000000e+00  -1.8046531968553348e-01  -2.1903975821612828e-01  -9.4997487513020706e-01  -6.5479624513671641e-01  -7.5570714256272831e-01  -3.3702010883851230e-01  -9.4974583973791993e-01  -9.0698987613428528e-01  -3.3399663981470762e-01  -6.1738959687331507e-01  -2.0741549878707236e-01  -4.8941435138622524e-01  -8.3067832905715444e-01  -6.2498923158669573e-01  -2.5744059768932270e-01  -5.9063028530332740e-01  -8.3084166667794201e-01  -5.4815545218877548e-01  -4.4014508623965570e-01  -4.1011738157880473e-01  -9.3539540880266359e-01  -4.8618784388725450e-01  -5.7050657752562861e-01  -5.6343337297280061e-01  -5.4877046423669296e-01  -4.5948123130504359e-01  -5.6991795377716803e-01  -3.9768100961707503e-01  -3.8434378286525162e-01  -5.0850127993615568e-01  -5.0594874408400170e-01  -4.8005394446016458e-01  -4.7168913207016877e-01  -4.6247395901253674e-01  -4.0806137823495481e-01  -5.9428445686649756e-01  -4.6960034792520045e-01  -4.6372284684986664e-01  -5.2542487768308999e-01  -5.1842597762530962e-01  -5.1000629542725462e-01  -4.7684509255534008e-01  -5.3044945782773878e-01  -5.2694676588991229e-01  -4.9848966090820113e-01  -5.0086599362603290e-01  -4.9907741993021337e-01  -4.7364963380329789e-01  -4.9953412827239102e-01  -4.9217594366218642e-01  -4.9729750076808027e-01  -5.0363125225529382e-01  -5.0985348132071762e-01  -5.7205733867927178e-01  -4.5476515937518375e-01  -5.9853661713502859e-01  -6.1666276972199829e-01  -4.4503598965643376e-01  -4.2911808770864851e-01  -3.8501743260670540e-01  -3.8058260918204639e-01  -5.5257083219233372e-01  -4.0344543837080687e-01  -3.9951948608409560e-01  -3.9687760184928694e-01  -5.7691160751778947e-01  -5.8023401630907478e-01  -4.4704814448392211e-01  -4.9015329264547430e-01  -4.9340432892851599e-01  -4.9160318331466296e-01  -5.0264686374140799e-01  -4.1290929741508309e-01  -4.4581633501601331e-01  -5.0732261425648606e-01  -5.1274373345474045e-01  -6.0390114078528556e-01  -4.4370960491060712e-01  -5.5589864756564256e-01  -5.4456281382862670e-01  -5.5405492715615501e-01  -4.6185018715817655e-01  -5.8283960359516918e-01  -6.0938734236439884e-01  -6.0086382916000192e-01  -6.0310241701562928e-01  -5.9587798471597864e-01  -6.1775711706376579e-01  -6.2473988091673838e-01  -5.1577172256852499e-01  -5.1434414721005606e-01  -6.0200980019119643e-01  -5.5242569222926607e-01  -4.3417602801810079e-01  -4.7916814304123512e-01  -5.0123625211492151e-01  -4.9799858380625533e-01  -5.1716047495841877e-01  -5.2139496651393358e-01  -5.0849265349819306e-01  -4.5854995754629924e-01  -4.4657338155815179e-01  -4.3000533911608529e-01  -5.6433209535807416e-01  -5.8050025337439926e-01  -5.1569503197123168e-01  -5.0090867532836481e-01  -5.4796273702958964e-01  -4.2394669295248166e-01  -4.1548113174900025e-01  -3.9933744024977635e-01  -4.2771120111595584e-01  -3.9386501659384249e-01  -3.8160842202695089e-01  -4.9639920084108502e-01  -5.1806581755218628e-01  -5.2395181777381672e-01  -4.5989092329287096e-01  -4.4920577108458926e-01  -4.7504679810179307e-01  -5.0705521217604010e-01  -4.9231255751007480e-01  -4.2555933461798806e-01  -5.3628411569252987e-01  -5.4619514444058226e-01  -4.8679661579625122e-01  -4.5175547385513809e-01  -5.3749759337877390e-01  -5.9380526861279048e-01  -6.1930457788482651e-01  -6.0254556428063111e-01  -5.7835734304979480e-01  -4.8500346536327288e-01  -4.6184032245152473e-01  -5.4335456114762470e-01  -5.7071368286011015e-01  -4.6506990338505882e-01  -5.7502437923063210e-01  -5.6114203709976562e-01  -3.8576159378295644e-01  -3.7180435047934224e-01  -4.0600141317880623e-01  -4.7321888297570747e-01  -4.1366822463222014e-01  -4.1469725777341054e-01  -4.2135840944606812e-01  -4.2944850837380377e-01  -4.6196291332329315e-01  -5.4273245888519761e-01  -4.9841616403955086e-01  -5.4088335188882175e-01  -5.6754697142778510e-01  -5.4475462225813531e-01  -4.0750745324827625e-01  -4.3412671695397997e-01  -4.2353647745398065e-01  -4.6129516894561706e-01  -4.8188945589925131e-01  -4.8946203821551015e-01  -5.8635837316658812e-01  -5.8741727014725054e-01  -4.9595534986379070e-01  -5.0116274029245034e-01  -5.4067971464785902e-01  -4.2017381450469826e-01  -4.9402229525464103e-01  -4.8682182010749592e-01  -6.0829834234810787e-01  -5.7835273216899097e-01  -5.8063380467236558e-01  -5.3481220620424463e-01  -5.3702879511663948e-01  -4.4515767277509127e-01  -4.2426268213501883e-01  -4.2191751582345455e-01  -4.8884759594028143e-01  -4.8338469509936965e-01  -4.9226911367649617e-01  -4.9973807971310263e-01  -5.0023428980408857e-01  -5.1244684111684635e-01  -5.1695799253859120e-01  -4.8337170286409148e-01  -4.8637936754548716e-01  -4.7708108651484554e-01  -4.6956204121396644e-01  -4.6954564669582965e-01  -4.6516250067290038e-01  -4.5832975786143043e-01  -4.7378289245587213e-01  -4.7845948893386048e-01  -5.2961251633487427e-01  -5.0339600293766096e-01  -5.1316507857854265e-01  -5.1607980075688620e-01  -5.1123038681931632e-01  -5.1605908785399346e-01  -4.8692287014030383e-01  -4.6897329070827087e-01  -5.2739426878717044e-01  -5.2353854941198907e-01  -4.8864932843930059e-01  -4.9486384186571969e-01  -4.9192796198064698e-01  -4.9992682501606900e-01  -5.0754112563943554e-01  -5.0649270844975758e-01  -4.9827407947407143e-01  -4.9689381953232298e-01  -5.0194445376440122e-01  -4.7957065899631707e-01  -5.0480931285265895e-01  -4.9528403177843577e-01  -5.0185294000096836e-01  -5.0346802579406036e-01  -5.0848599872942513e-01  -5.0070581238561485e-01  -4.9992871166427472e-01  -4.9079410833777981e-01  -4.9765205528864653e-01  -4.9204944364224651e-01  -4.8826152934936179e-01  -4.9670974159490344e-01  -4.9386983512527549e-01  -4.8915861141995920e-01  -4.9342179833097294e-01  -4.9348832967943751e-01  -5.0992989140109324e-01  -5.0390028820768229e-01  -5.1118167828246552e-01  -5.0341049364151447e-01  -5.1512404373057785e-01  -5.1956580774420813e-01  -5.2360000101595028e-01  -5.1628804281080964e-01  -5.0924321676824935e-01  -4.7015423939983803e-01  -4.8147687187507981e-01  -4.8427153231614672e-01  -4.9909572895844084e-01  -4.9951703546575493e-01  -5.0299325764989911e-01  -4.9998285011941651e-01  -4.9796409732993863e-01  -5.2896319320346319e-01  -5.1303503105175241e-01  -5.2674024973104516e-01  -5.1673759155152776e-01  -5.0807654356681076e-01  -4.9940123984140089e-01  -5.2910412710651300e-01  -5.1935826423880505e-01  -5.2259830931533691e-01  -4.7013058704192512e-01  -4.8001391445364994e-01  -4.8132395492615143e-01  -4.7258278620328936e-01  -5.0040661912842621e-01  -4.8740558372491921e-01  -4.8000999338731248e-01  -4.8490942960600653e-01  -4.7050889708580912e-01  -4.6329522229939302e-01  -4.9704679566912929e-01  -4.9459960535575476e-01  -4.9952972895459757e-01  -4.9711906886612334e-01  -5.0437098414113091e-01  -5.0020091802081501e-01  -4.8974479819517780e-01  -4.9112012049558468e-01  -5.3016590972189759e-01  -5.2999898500952292e-01  </DataArray> 
</PointData> 
</Piece>
</UnstructuredGrid>
</VTKFile>