<?xml version="1.0"?>
<VTKFile type="UnstructuredGrid"  version="0.1"  >
<UnstructuredGrid>
<Piece  NumberOfPoints="778" NumberOfCells="1401">
<Points>
<DataArray  type="Float64"  NumberOfComponents="3"  format="ascii">1 -1 0  6 -1 0  6 1 0  1 1 0  1 6 0  -1 6 0  -1 1 0  -6 1 0  -6 -1 0  -1 -1 0  -1 -6 0  1 -6 0  1 3.5 0  -1 3.5 0  -1 -3.5 0  1 -3.5 0  3.5 -1 0  3.5 1 0  -3.5 -1 0  -3.5 1 0  -1 -2.25 0  1 -2.25 0  2.25 -1 0  2.25 1 0  -1 2.25 0  1 2.25 0  -1 4.75 0  1 4.75 0  -4.75 -1 0  -4.75 1 0  -2.25 1 0  -2.25 -1 0  1 -4.75 0  -1 -4.75 0  4.75 1 0  4.75 -1 0  0 0 0  -2.875 0 0  -1.625 0 0  -4.125 0 0  -6 0 0  0 2.875 0  2.875 0 0  0 6 0  1.625 0 0  0 -2.875 0  0 -1.625 0  0 1.625 0  0 4.125 0  0 -6 0  0 -4.125 0  4.125 0 0  6 0 0  -0.109375 5.0625 0  -5.0625 -0.109375 0  -0.109375 -5.0625 0  5.0625 0.109375 0  0.8125 -0.1875 0  -0.1875 -0.8125 0  -0.8125 0.1875 0  -0.1875 0.8125 0  1 5.375 0  -5.375 1 0  1 -5.375 0  5.375 -1 0  0.53515625 0.46484375 0  -5.375 -1 0  -1 5.375 0  -1 -5.375 0  -0.5 -6 0  5.375 1 0  6 0.5 0  3.5 0.3046875 0  3.43125 -0.34765625 0  2.875 -1 0  4.125 1 0  0.3046875 3.5 0  -0.34765625 3.56875 0  -1 4.125 0  1 4.125 0  -0.3046875 2.25 0  0.34765625 2.18125 0  1 1.625 0  -1 -1.625 0  -0.3046875 -3.5 0  0.34765625 -3.56875 0  1 -4.125 0  0.3046875 -2.25 0  -0.34765625 -2.18125 0  -1 -4.125 0  -1 -2.875 0  1 -2.875 0  1 -1.625 0  1.625 -1 0  1.625 1 0  2.25 0.3046875 0  2.18125 -0.34765625 0  4.125 -1 0  2.875 1 0  1 2.875 0  -1 1.625 0  -1 2.875 0  -4.125 -1 0  -2.25 0.3046875 0  -2.31875 -0.34765625 0  -2.875 -1 0  -1.625 1 0  -4.125 1 0  -3.5 0.3046875 0  -3.56875 -0.34765625 0  -1.625 -1 0  -2.875 1 0  0.380626321794301 1.06853329530276 0  -1.110819327731092 -0.3739495798319328 0  0.3739495798319328 -1.110819327731092 0  1.151210293219304 0.3991939332620648 0  -0.5 -4.4375 0  0.5 -4.4375 0  5.481553398058253 -0.3712833737864077 0  0.5 4.4375 0  0.5 6 0  -0.522503783594538 -0.3265648647465863 0  -1.3125 0.5 0  -0.5 6 0  0.3265648647465863 -0.522503783594538 0  4.4375 0.5 0  4.4375 -0.5 0  0.5 -6 0  -6 -0.5 0  -5.481553398058253 0.3712833737864077 0  -4.55 -0.4296875 0  -4.4375 0.5 0  -0.5 4.4375 0  0.4792930825242718 5.026881067961165 0  0.4792930825242718 -5.026881067961165 0  -0.5 1.3125 0  1.3125 -0.5 0  -0.5 -1.3125 0  0.25 5.518539952962044 0  0.2125133872612723 -5.500076563152851 0  4.969341874373811 -0.5152550785163683 0  -4.969341874373811 0.5152550785163683 0  3.927189744345589 -0.4712876597840069 0  -5.554036458333333 -0.25 0  5.554036458333333 0.25 0  -0.4690710616438356 -5.462756849315069 0  -0.4690710616438356 5.462756849315069 0  -6 0.5 0  -1.59556436210848 -0.5 0  -3.058421751829955 -0.5 0  -0.5 2.731982421875 0  0.5 2.691578248170045 0  2.691578248170045 -0.5 0  1.641211254104555 0.5 0  0.5 -1.768017578125 0  0.5 -3.058421751829955 0  0.5 1.699267578125 0  3.018017578125 0.5 0  -0.5 -3.018017578125 0  -2.731982421875 0.5 0  6 -0.5 0  -4.050017120925308 -0.5006099332648871 0  -3.940668202764977 0.5371363767281105 0  3.940668202764977 0.5371363767281105 0  0.4517449476047904 3.958458083832335 0  -0.4517449476047904 -3.958458083832335 0  -1.809331797235023 0.5371363767281105 0  -0.4517449476047904 1.791541916167665 0  -0.0546875 4.59375 0  -5.006445312499999 -0.58984375 0  4.605643203883496 -0.04725424757281554 0  4.90625 0.5546875 0  -0.5546875 4.90625 0  0.04725424757281554 -4.605643203883496 0  -0.586116118210531 -4.995821561900013 0  -4.603710222472543 0.04846236095466061 0  -3.1875 0.65234375 0  0.6163907621110913 3.147502300973589 0  2.5625 0.65234375 0  0.6163907621110913 -2.602497699026411 0  -0.637456713551384 3.189259902731882 0  -0.637456713551384 -2.560740097268118 0  -0.34765625 0.34765625 0  -0.639453125 0.708203125 0  0.089630126953125 0.437286376953125 0  -0.4238281249999999 -1.746875 0  1.746875 -0.4238281249999999 0  -0.4238281249999999 4.003125 0  0.4238281249999999 -4.003125 0  -2.5625 -1 0  3.1875 -1 0  -0.09375 -1.21875 0  1.21875 -0.09375 0  0.4020305405760241 -0.1120343241705621 0  -0.6280191027904287 -0.7577505545748082 0  0.90625 -0.59375 0  -1.205500904741459 0.03633725387965409 0  -0.02129048848213058 1.202028574265107 0  -0.1120343241705621 -0.4020305405760241 0  1 1.3125 0  -2.003587563743074 -0.6442361556699288 0  0.6640077663259718 -1.395873598614549 0  5.6875 -1 0  0.6308138580859101 -5.592151086468728 0  -5.6875 -1 0  0.6568032075915271 5.612942566073222 0  5.616530031741774 0.6612875396772174 0  -5.6875 1 0  1.9375 1 0  -1.3125 -1 0  0.1524679547155687 -3.232579139388032 0  0.1524679547155687 2.517420860611968 0  -3.232579139388032 -0.1524679547155687 0  -1.932320553757026 -0.252759244693845 0  2.517420860611968 -0.1524679547155687 0  -0.04776045819569434 -2.464949198504599 0  -0.2420369079104247 3.187693796852321 0  3.751304711039982 -0.1203080877045035 0  -5.397601941771943 -0.609026059866711 0  1.3125 1 0  1.9375 -1 0  -0.6946315101963667 -2.018229242739021 0  -0.6946315101963667 3.731770757260979 0  1 -3.8125 0  2.014364435550335 0.6166648446293641 0  -1 5.6875 0  -1 -5.6875 0  -2.653476149871182 -0.5942957192996303 0  3.096523850128818 -0.5942957192996303 0  1 1.9375 0  -3.8125 -1 0  0.586975531244212 -0.7975955463807081 0  -0.2946248980953088 -4.743710873809568 0  2.625453376770019 0.2814788818359375 0  -3.124546623229981 0.2814788818359375 0  -0.1204856417894853 5.631800603217465 0  5.253862011026742 0.6581468962876398 0  -0.65234375 2.108701557941197 0  0.65234375 3.641298442058803 0  -0.65234375 -3.641298442058803 0  -0.25 -5.744880569758637 0  -4.4375 -1 0  -0.3166212631734941 -2.713595940002554 0  0.6591479224207506 0.1324305912687024 0  0.8660781906552419 0.6468634238104103 0  -0.9887189158197679 0.6452930723873549 0  0.3149351927204296 -1.460971774996065 0  -0.3572852727880474 -0.009629022788047503 0  2.09375 -0.6866724363772454 0  0.6866724363772454 -3.65625 0  0.6866724363772454 2.09375 0  -3.65625 -0.6866724363772454 0  -3.5371337890625 0.65234375 0  -0.1389584113023952 1.944025352615082 0  -2.151744288472698 0.65234375 0  -0.1389584113023951 -3.805974647384918 0  0.1389584113023951 3.805974647384918 0  -2.578772109813904 0.1857224367977529 0  3.171227890186096 0.1857224367977529 0  3.360315647536819 0.65234375 0  0.1857224367977528 -1.921227890186096 0  0.65234375 -2.110315647536819 0  1.894016528727564 0.2415406141485869 0  -3.738232421875 0 0  0.2516875549238616 3.139069895099618 0  -1.913724396854074 0.2011142179916434 0  0.1669456568161915 0.7843410671359501 0  -2.5625 1 0  -1 -3.1875 0  -1 2.5625 0  0.1736601499778735 4.857955663330752 0  -0.1893536587212888 2.577300639071919 0  -0.1893536587212888 -3.172699360928081 0  3.852271904453858 0.206603749322895 0  -3.8125 1 0  -0.1250095034621793 -5.421707592768541 0  3.8125 -1 0  3.617304217264373 -0.6578427703661498 0  0.2630176195580202 -2.636558318495885 0  0.2674330357770522 1.399517071108871 0  0.631726413079416 1.339254523727593 0  4.700571879807737 0.2813704945051134 0  0.7143844363649634 -3.319538455208831 0  2.430461544791169 -0.7143844363649634 0  0.7143844363649634 2.430461544791169 0  -3.319538455208831 -0.7143844363649634 0  5.687045771608623 -0.6520598572553891 0  -5.687045771608623 0.6520598572553891 0  -1.15625 -0.7048248829733235 0  3.438284572973296 -0.01860298867862281 0  -0.03021088078697859 3.451572359862192 0  2.216682837011589 -0.02159585961918548 0  -2.191580885932936 -0.03126387444658879 0  0.1857410764408683 1.895679405349457 0  3.103473238297955 -0.253270943723272 0  -2.646526761702045 -0.253270943723272 0  -2.333137350671861 -0.6791984914172315 0  -1 5.0625 0  -0.6971235589909319 5.213002544375844 0  0.01618705363819947 2.225929180591695 0  0.01618705363819947 -3.524070819408305 0  0.5690054882403073 0.7951310720450595 0  -0.5764940424412852 -3.329579265180942 0  -0.5764940424412852 2.420420734819058 0  3.8125 1 0  -5.372163860234628 0.04365139563106807 0  5.164108319316826 -0.225040894204947 0  -5.361952437854323 0.6744012088984681 0  -5.0625 1 0  5.286835586913878 -0.6616705837083201 0  -5.692815197359722 0.1186699900166531 0  5.663425996156958 -0.07763197815533956 0  -0.9219866027132193 -0.1143045829323572 0  -1.394333629759332 -0.2233077430199216 0  0.09322478991596644 -0.9616596638655462 0  5.0625 -1 0  -0.14412109375 -1.92169189453125 0  -4.28125 -0.7212148987671345 0  0.2649796277366407 0.1735162902120744 0  -4.907855692236596 0.1868230509619793 0  -1.9375 1 0  1 5.0625 0  0.6915124486819284 -5.272938212550202 0  0.683483242673902 5.284948082526911 0  2.5625 -1 0  -1 -3.8125 0  -1 1.9375 0  5.0625 1 0  -1 -1.9375 0  1 5.6875 0  1 -5.6875 0  -1.9375 -1 0  -1 -2.5625 0  -1 3.1875 0  1 -3.1875 0  1 -2.5625 0  1 2.5625 0  1 3.1875 0  -5.0625 -1 0  -1 -1.3125 0  1.3125 -1 0  -1 1.3125 0  -1 3.8125 0  -1 4.4375 0  -4.4375 1 0  4.4375 -1 0  4.4375 1 0  -1.3125 1 0  1 4.4375 0  1 -4.4375 0  -1 -5.0625 0  -1 -4.4375 0  -3.1875 1 0  2.5625 1 0  1 -1.9375 0  1 -1.3125 0  5.6875 1 0  1 3.8125 0  3.1875 1 0  -3.1875 -1 0  1 -5.0625 0  1.35138038998199 0.6675097549271188 0  -0.465625 0.986328125 0  1.435958105992309 0.2563920171199723 0  1.915914614192913 -0.145782394639918 0  -0.8764440609469509 -0.5746869313612541 0  5.355194559946098 0.01566259380337612 0  -5.69333042954964 -0.5242868300459975 0  1.78125 -0.7320750794491524 0  0.7320750794491525 -3.96875 0  -0.3959075548864684 5.166422468926435 0  -4.770522389068053 -0.2123670725088856 0  -4.714160156249999 -0.69234375 0  -4.273484403713342 -0.278160994327167 0  0.9642590244517505 0.08196089404241463 0  0.3500261717645397 -4.727285205957206 0  0.6740868006020392 -4.765147848348443 0  0.6797550207247084 -1.089747806381148 0  -5.186479934354063 0.3046329157552757 0  -5.263288238215326 -0.3369092276308425 0  -2.433484016245305 0.5442571297016638 0  0.1707808983307866 -3.82363304980935 0  -0.1554012991031027 3.867535742674252 0  4.855508096805579 -0.2283975605264581 0  3.644517238097614 0.5646428152488787 0  0.05699603874439441 -0.6452791208413911 0  -0.3550018917972689 -0.5695324323732931 0  0.6
[...]
<PointData  Scalars="u"> 
<DataArray  type="Float64"  Name="u"  format="ascii">-3.6401551884864053e-01  0.0000000000000000e+00  0.0000000000000000e+00  -3.5988810462202608e-01  -7.1846500374484090e-01  -7.1846500374484090e-01  -3.6049744729360000e-01  0.0000000000000000e+00  0.0000000000000000e+00  -3.6030521624625950e-01  -7.1846500374484090e-01  -7.1846500374484090e-01  -5.4973477453953490e-01  -5.5018751678100297e-01  -5.4969148787576250e-01  -5.5002379796585799e-01  -1.6848598825608008e-01  -1.6919580256620265e-01  -1.6853315468342622e-01  -1.6925434750737736e-01  -4.6576218178688122e-01  -4.6631488445555647e-01  -2.5273485784971428e-01  -2.5270226587288996e-01  -4.6622215276241619e-01  -4.6601676974237921e-01  -6.3381044902282591e-01  -6.3423507547495728e-01  -8.4552082281924734e-02  -8.4350949197018438e-02  -2.5303524429994900e-01  -2.5314681795688582e-01  -6.3461338792518385e-01  -6.3444914427033416e-01  -8.4873255481037760e-02  -8.4154393277947132e-02  -3.5761142471499696e-01  -2.1062051600573997e-01  -2.9409309020923768e-01  -1.2643892086775410e-01  0.0000000000000000e+00  -5.0800472647117123e-01  -2.1052464522841377e-01  -7.1846500374484090e-01  -2.9386180504111648e-01  -5.0801501174316610e-01  -4.2429188490518649e-01  -4.2427431741589622e-01  -5.9218396899409120e-01  -7.1846500374484090e-01  -5.9218874653939291e-01  -1.2632504454918222e-01  0.0000000000000000e+00  -6.5532396873222976e-01  -6.3251782639539442e-02  -6.5534361219241888e-01  -6.3169615220457859e-02  -3.4053978837526167e-01  -3.7592090854333593e-01  -3.4067568258831143e-01  -3.7590491352202360e-01  -6.7638395192071932e-01  -4.1784238656339942e-02  -6.7616553757278908e-01  -4.1771195030010790e-02  -3.5600452419569573e-01  -4.3002103496176489e-02  -6.7655636117720375e-01  -6.7629946649085637e-01  -7.1846500374484090e-01  -4.2025153285241999e-02  0.0000000000000000e+00  -1.6851638465039359e-01  -1.7309286619721220e-01  -2.1074466353635507e-01  -1.2612138755760002e-01  -5.5008407631050449e-01  -5.5472668855000740e-01  -5.9211917802048974e-01  -5.9220726124001788e-01  -4.6591552582332191e-01  -4.6128164474080080e-01  -4.2354750210837211e-01  -4.2309179554197224e-01  -5.5007375807255410e-01  -5.5472529729484243e-01  -5.9213205900331312e-01  -4.6594535218456512e-01  -4.6129341239191934e-01  -5.9176865746625151e-01  -5.0817950743924034e-01  -5.0840313597079534e-01  -4.2343228121341447e-01  -2.9568918001981553e-01  -2.9547390157471265e-01  -2.5256379474840629e-01  -2.5718455842203541e-01  -1.2654334588884647e-01  -2.1033728501362231e-01  -5.0764781102663670e-01  -4.2349329760882448e-01  -5.0774911896469077e-01  -1.2662291124198433e-01  -2.5275416617097241e-01  -2.4810608800523820e-01  -2.1047466401855894e-01  -2.9609419911607765e-01  -1.2680254714716963e-01  -1.6858081646661466e-01  -1.6391415947877866e-01  -2.9565858525695793e-01  -2.1051145106664562e-01  -3.8742973106246181e-01  -3.2744453657518569e-01  -3.9024327250046770e-01  -3.2531258844443273e-01  -6.1327878124319712e-01  -6.1322931678318182e-01  -3.4984327672975109e-02  -6.1322638157162335e-01  -7.1846500374484090e-01  -3.5325209365708876e-01  -3.1618941679957036e-01  -7.1846500374484090e-01  -3.6267679077331016e-01  -1.0528466119984006e-01  -1.0526026964850013e-01  -7.1846500374484090e-01  0.0000000000000000e+00  -3.4979045854867157e-02  -9.7844290416446100e-02  -1.0541641506211365e-01  -6.1317909700361461e-01  -6.5289972051235745e-01  -6.5294341096002406e-01  -4.0237108732108168e-01  -3.1584923819075889e-01  -4.0218590015886491e-01  -6.8604815552720599e-01  -6.8481241266600512e-01  -6.9502115420776528e-02  -6.9492004481299524e-02  -1.3965118680002106e-01  -3.0106967209233129e-02  -3.0048814993528614e-02  -6.8226003319213280e-01  -6.8226721412501823e-01  0.0000000000000000e+00  -2.9710467841419308e-01  -1.9826670151047854e-01  -4.9839628190224211e-01  -4.9565443448108887e-01  -2.2288473488501301e-01  -2.9369881942426063e-01  -4.3330275704103399e-01  -5.2037614125271625e-01  -4.2864999099991535e-01  -2.0090255308364777e-01  -5.1762492989269782e-01  -2.2022110830876157e-01  0.0000000000000000e+00  -1.3149385043344505e-01  -1.3900186903682560e-01  -1.3890108927443123e-01  -5.8101147042581414e-01  -5.8095602773622979e-01  -2.8256565979105447e-01  -4.3489386520351481e-01  -6.2374620951136461e-01  -6.7162243260293408e-02  -9.3953807994210811e-02  -7.3714140911462694e-02  -6.4481795563931044e-01  -6.2457120427949231e-01  -6.5086761113057401e-01  -9.4167327725150102e-02  -1.8950862853565842e-01  -5.2639912956291657e-01  -2.3158723109108995e-01  -4.8968957587426526e-01  -5.2914140351655736e-01  -4.8691489716980929e-01  -3.5796970784408144e-01  -3.6140213108850300e-01  -3.6299899380718365e-01  -4.3195724280876008e-01  -2.8642302602676561e-01  -5.8399485917356153e-01  -5.8399692610080700e-01  -2.3137966531763751e-01  -1.8959329227622437e-01  -3.9845713843714331e-01  -3.1902083402968417e-01  -3.5348777897983374e-01  -3.6359780059858371e-01  -3.4400745403510541e-01  -3.1985267379954097e-01  -3.9744895705381167e-01  -3.6202941594835980e-01  -4.0359305184908195e-01  -2.6950147697925875e-01  -4.0696888662022335e-01  -2.1578764966734349e-02  -6.9102964415977919e-01  -2.0697211489263782e-02  -6.9241407577648295e-01  -2.5845308189231541e-02  -2.1842419185470294e-02  -2.7367831875540499e-01  -3.1724546527731073e-01  -5.3208671489577108e-01  -4.8393066271551904e-01  -1.8655072576368029e-01  -2.7402546600300098e-01  -2.3457260232985908e-01  -4.8042706568620513e-01  -5.2907395647978472e-01  -1.5149657336460948e-01  -4.0714426805619305e-02  -3.1751156807182745e-01  -2.7400220052483182e-01  -4.5017554898368789e-01  -5.6575459878919421e-01  -5.7130780037274487e-01  -2.6862685372955536e-01  -6.9694214932844756e-01  -6.9696289015380763e-01  -2.2560952017750696e-01  -1.9564106535137810e-01  -4.4452126356974747e-01  -1.4732721838641027e-01  -3.6724933659401809e-01  -6.3387726362963503e-01  -2.2733469527826008e-01  -1.9384934840611970e-01  -6.9366491269041952e-01  -5.0313658649461968e-02  -4.5641658958340403e-01  -5.5967055525391152e-01  -5.5955918303600105e-01  -7.0126244536819760e-01  -1.0516267991947052e-01  -4.9718270536634313e-01  -3.4627333562237672e-01  -3.4710692312815128e-01  -3.4010726974330013e-01  -4.1306853302529772e-01  -3.5420066394558553e-01  -2.6322889791308934e-01  -5.6063224616245677e-01  -4.5536465333209347e-01  -1.5804075143708135e-01  -1.6616495331103212e-01  -4.4541607278222306e-01  -2.5930499211324481e-01  -5.7068764538005146e-01  -5.7070400591810322e-01  -2.3053066414494791e-01  -1.9058179669734776e-01  -1.7770297012918271e-01  -4.4387982286483874e-01  -4.5651716729975128e-01  -2.7636831250987243e-01  -1.5249299001077621e-01  -5.2579846365378868e-01  -2.7518511497691628e-01  -3.7477384925654988e-01  -2.3106302176393662e-01  -5.2875483705700466e-01  -4.8724334627234139e-01  -6.4154608819511072e-01  -4.8798231869964265e-01  -5.2803310800122372e-01  -1.4466361085269094e-01  -1.4712018352000739e-01  -6.7951889685662059e-01  -1.4717609982469981e-01  -1.6052913086817999e-01  -4.9196292201158126e-01  -4.0926690771061502e-01  -4.0256602079320319e-01  -8.7600133418811163e-02  -5.3801683592751270e-01  -2.4051157393414072e-01  -4.7798731633423208e-01  -1.8066918718712044e-01  -2.1226701768999205e-02  -2.1256293572778702e-02  -3.2956162047985077e-01  -1.7260029367770416e-01  -5.4683221932078929e-01  -2.5474230770865369e-01  -2.5658995547281782e-01  -4.4215340521451907e-01  -1.9514014464345036e-01  -2.2601721432618152e-01  -2.4732421915672026e-01  -6.5591140556144245e-01  -6.6529735840721693e-01  -4.6432098978499420e-01  -5.5171104129865645e-01  -3.6734919081141582e-01  -5.3868016458864676e-01  -4.7733399232017187e-01  -1.4673539667798413e-01  -4.2363644411001565e-02  -5.6347532769131625e-02  -4.2928320072132820e-02  -6.3160727531696825e-02  -4.8057473321140701e-02  -2.0723100643012700e-02  -2.2674591319431250e-02  -3.3526826892799771e-01  -3.0907680633735735e-01  -3.8383475144654378e-01  -6.3612195450069867e-02  -4.4391224127109813e-01  -1.1589606444993517e-01  -3.5660019986550140e-01  -7.3663388822642395e-02  -2.7422475689187215e-01  -6.5512234316139473e-01  -6.6959872713188540e-01  -6.7039605850658979e-01  -2.3131866748451149e-01  -5.7170482546163470e-01  -4.4431599115223819e-01  -6.2887821933467369e-02  -4.4449677438188451e-01  -6.9783584327842363e-01  -6.9794585313667357e-01  -2.7451680361412750e-01  -4.8748660950469480e-01  -5.2869996870024982e-01  -5.2899479384709680e-01  -4.8643273097191408e-01  -4.8699607756697816e-01  -5.2968864365442836e-01  -6.3387093178265908e-02  -4.0410737573382416e-01  -3.2002139876593855e-01  -4.0427063975371752e-01  -5.7148590669460986e-01  -6.1297411005998959e-01  -1.0518689272052709e-01  -1.0511758054674850e-01  -1.0536274059853215e-01  -3.1711220569275744e-01  -6.1320375265287219e-01  -6.1310550378249817e-01  -6.5597946178333499e-01  -6.1304403266637708e-01  -1.8951535878668546e-01  -2.3166704209810671e-01  -4.4452117073251723e-01  -4.0348563372146573e-01  -2.0594520698336494e-02  -5.7140316448732131e-01  -1.8985644369247831e-01  -1.8979653754223233e-01  -6.5508763728834984e-01  -3.1524136014012843e-01  -3.8115688331763214e-01  -3.0638058684935193e-01  -2.7483205209337735e-01  -3.4568621163955160e-01  -4.3452949769357749e-02  -2.0832630627452497e-02  -2.8452382474857263e-01  -5.8161682277449755e-01  -6.6243142354981299e-01  -8.2946520438629046e-02  -8.6726608075267914e-02  -1.1643075812923680e-01  -3.3289817718149989e-01  -6.3275306372746776e-01  -6.3535577985019553e-01  -3.8500317219278574e-01  -5.4864675857458634e-02  -4.9782807315819043e-02  -2.4047136385488155e-01  -5.7188587217599229e-01  -5.7485021327559049e-01  -7.7114377074969473e-02  -1.5872552356382028e-01  -3.6968031854787858e-01  -3.6372877816714155e-01  -3.5219277925138642e-01  -3.5921322717679754e-01  -1.3946105790183247e-01  -6.4479402551354081e-01  -6.6346977998371248e-01  -6.6307556288701675e-01  -6.3295983091710384e-01  -6.0271022553941289e-01  -9.4620503787489610e-02  -9.4768428149807737e-02  -3.0656442568921094e-01  -3.3045726029418165e-01  -6.9961263731448065e-01  -4.1085643752915590e-01  -3.8247422153045268e-01  -3.0424097474377193e-01  -3.8505429879323261e-01  -4.1377145989954328e-01  -6.0091421075459062e-01  -6.0089523540806400e-01  -3.2961653521540141e-01  -4.1964231903651372e-01  -1.1157381925627330e-01  -6.3072694475195912e-01  -6.0975758783548017e-01  -6.3803235522194257e-01  -6.0266578977406404e-01  -6.2765194409459646e-01  -6.0963466380276687e-01  -3.8736573220066761e-01  -4.1223951006403975e-01  -3.0661209492091190e-01  -3.0088967446265275e-01  -5.9567434342684422e-01  -1.0874260880066346e-01  -1.2107411555075973e-01  -1.1136863823060246e-01  -1.2120034720597550e-01  -1.2323740771971561e-01  -8.7801851550938156e-02  -6.9962754745498323e-01  -6.2373665039346438e-01  -6.0271884546012222e-01  -4.9807289665089745e-02  -7.0076695785892007e-01  -3.0912756864009278e-01  -3.3006100794886084e-01  -3.4665121299119184e-01  -1.4892437138804882e-01  -3.4106732922999738e-01  -5.8157483401294385e-01  -4.3410870682892305e-01  -6.7441431785857808e-01  -6.4324849332906942e-01  -1.2264149067173515e-01  0.0000000000000000e+00  -8.7196828856512962e-02  -6.6574671115724993e-01  -1.2988004635231226e-01  -4.6036320234470685e-01  -4.3418640763421879e-01  -1.3984334365817117e-01  -5.8394899025547076e-01  -7.1846500374484090e-01  -1.7882461328571636e-01  -2.5046399780076228e-01  -3.4726604123452831e-01  -3.8338874787270272e-01  -2.8570950577985460e-01  -5.4781407103045621e-01  -4.6825372808292076e-01  -6.9950724516583995e-01  -7.0208519632445998e-01  -7.0096403237333560e-01  -1.4306934927527398e-01  -1.5944619813034300e-02  -6.6693134176218538e-01  -7.0069306594240433e-01  -5.7726412222755819e-01  -1.6735143364506152e-02  -4.7940341467538106e-01  -4.9746829523525526e-01  -5.1847160800827241e-01  -5.1037525601425870e-01  -5.0707246334487377e-01  -2.1203444313912051e-01  -2.1774065590524536e-01  -2.0907792542642600e-01  -2.0340363119210411e-01  -1.8063742931814450e-01  -2.4049334881056433e-01  -5.3799977837224999e-01  -4.7879567724290906e-01  -7.6801847507892360e-02  -8.7257318838281611e-02  -6.7300169026033874e-01  -1.7156818676773836e-01  -1.9447894570225102e-01  -2.1328503400533005e-01  -4.9129371905796160e-01  -5.2465025609787364e-01  -2.2110895802347810e-01  -4.3429149335938705e-01  -5.1020946652242838e-01  -5.3942302172042700e-01  -4.7641045748397015e-01  -3.7368172657832055e-01  -5.1020521724533285e-01  -2.1171137194729900e-01  -2.0944302194186049e-01  -5.0515885101012614e-01  -2.8471690788137932e-01  -7.1846500374484090e-01  -5.2344503890703414e-02  0.0000000000000000e+00  -1.5112192757805749e-02  -1.7090828156836001e-02  0.0000000000000000e+00  -1.2880221246457782e-01  -1.5631347482239608e-01  -6.8290772606942229e-01  -4.7205594645568200e-01  -5.4411570996675607e-01  -2.4064160173192370e-01  -6.8271576075597573e-01  -6.5217065594447632e-01  -2.3851913073555484e-01  -4.4523245086835345e-01  -1.4811740803106657e-01  -3.5035178021295171e-01  -5.9772165332394844e-01  -4.5071301047397933e-01  -1.8377643837662258e-01  -4.2582520857032269e-01  -5.9775720722423042e-01  -3.9466279950685118e-01  -3.1458898654438366e-01  -2.9301056797007707e-01  -6.7247656367801700e-01  -3.4799768365449696e-01  -4.1101202038625723e-01  -4.0582511015034123e-01  -3.9494742623045320e-01  -3.2879685628504030e-01  -4.1057720915602863e-01  -2.8409580722961431e-01  -2.7453780531280120e-01  -3.6480472644210771e-01  -3.6422939268391102e-01  -3.4352931456612235e-01  -3.3746803892560850e-01  -3.3075775064408475e-01  -2.9153873908325595e-01  -4.2850137041558084e-01  -3.3635567211386475e-01  -3.3175359369279617e-01  -3.7761006271466507e-01  -3.7230005861034571e-01  -3.6583112291033831e-01  -3.4123556828857188e-01  -3.8143590650128650e-01  -3.7885023408814711e-01  -3.5732066447673505e-01  -3.5882514390642373e-01  -3.5739931914533857e-01  -3.3904895312956612e-01  -3.5770528259359702e-01  -3.5234632404323379e-01  -3.5619580028935727e-01  -3.6093653134833437e-01  -3.6562989357212194e-01  -4.1343777118011860e-01  -3.2439484628855880e-01  -4.3213517133888951e-01  -4.4484000936783719e-01  -3.1777389972868497e-01  -3.0669304909297529e-01  -2.7495109257996225e-01  -2.7180043450753494e-01  -3.9881156862404438e-01  -2.8803555892269089e-01  -2.8532677629001879e-01  -2.8343576334003107e-01  -4.1644510592476386e-01  -4.1893903358488710e-01  -3.1962582539146045e-01  -3.5085411137906813e-01  -3.5326966711023983e-01  -3.5258515082337410e-01  -3.6105440696485686e-01  -2.9501234517506580e-01  -3.1876094859550441e-01  -3.6362149625084811e-01  -3.6777635268443526e-01  -4.3548137453315544e-01  -3.1725805517908190e-01  -4.0045016046561971e-01  -3.9263797905616543e-01  -4.0008310701446925e-01  -3.2972745353337995e-01  -4.2069795681345606e-01  -4.3961488653729819e-01  -4.3316948733954258e-01  -4.3477417754878117e-01  -4.2956954632883082e-01  -4.4556057685291361e-01  -4.5047053483161925e-01  -3.7089469393529201e-01  -3.6893852333336541e-01  -4.3401108402184052e-01  -3.9832554948786092e-01  -3.1025005333258576e-01  -3.4291044863017806e-01  -3.5896744288110560e-01  -3.5655435110428513e-01  -3.7137842166229773e-01  -3.7460298809204051e-01  -3.6606571457717918e-01  -3.2806560359184711e-01  -3.1914974218537806e-01  -3.0738004377588735e-01  -4.0666361918763699e-01  -4.1862572775039691e-01  -3.7023810785289080e-01  -3.5872475101098583e-01  -3.9489929948271080e-01  -3.0280673364651595e-01  -2.9665913532925420e-01  -2.8530450443610889e-01  -3.0533054074380761e-01  -2.8121325410734621e-01  -2.7250683728624847e-01  -3.5581536573888717e-01  -3.7183815247234070e-01  -3.7627019210334844e-01  -3.2898190192695459e-01  -3.2118311034266955e-01  -3.3991218625958125e-01  -3.6456620146194407e-01  -3.5290951515061370e-01  -3.0404278179223043e-01  -3.8554752871463316e-01  -3.9307930106538641e-01  -3.4854646592795524e-01  -3.2308110716125826e-01  -3.8652091922076320e-01  -4.2810792090698141e-01  -4.4661575506323120e-01  -4.3484660217083299e-01  -4.1718111716362288e-01  -3.4688722386103893e-01  -3.2675718505823265e-01  -3.9126947835050724e-01  -4.1236194594755221e-01  -3.3216401557895647e-01  -4.1550763079662556e-01  -4.0415485924781613e-01  -2.7555754770882340e-01  -2.6554100569676525e-01  -2.9006540081685944e-01  -3.3859646279345484e-01  -2.9535782166050428e-01  -2.9623578377916299e-01  -3.0105384459853973e-01  -3.0608181471808416e-01  -3.3042141784283802e-01  -3.9403551632591560e-01  -3.5698409837807032e-01  -3.9336077063532604e-01  -4.1024522626635224e-01  -3.9645970482001969e-01  -2.9114229689390420e-01  -3.0996367238571848e-01  -3.0231316393008295e-01  -3.3006299659995181e-01  -3.4491959120650195e-01  -3.5047587413761139e-01  -4.2334990929484856e-01  -4.2387171398340839e-01  -3.5509466208600327e-01  -3.5921222673123743e-01  -3.9276486316330378e-01  -3.0000111078182440e-01  -3.5387489541736938e-01  -3.4854279298465274e-01  -4.3866746610380841e-01  -4.1680501862418895e-01  -4.1864948861110662e-01  -3.8456857436674963e-01  -3.8610751933478082e-01  -3.1831568203709504e-01  -3.0314828308827790e-01  -3.0152035430381674e-01  -3.4992288773618113e-01  -3.4599293741452880e-01  -3.5247697390527816e-01  -3.5815724241672531e-01  -3.5875732570682450e-01  -3.6767775122020696e-01  -3.7136661806565130e-01  -3.4597159046871467e-01  -3.4810412580358874e-01  -3.4136217657056167e-01  -3.3594690624128315e-01  -3.3593778335047897e-01  -3.3275390604727639e-01  -3.2783355994351576e-01  -3.3899859732152621e-01  -3.4237200695181674e-01  -3.8065765526747880e-01  -3.6107538351225288e-01  -3.6808299425486424e-01  -3.7042619804094540e-01  -3.6695001294924967e-01  -3.7071257524435669e-01  -3.4875950056710470e-01  -3.3552994060472185e-01  -3.7893474212841821e-01  -3.7621420939983025e-01  -3.4998710888684070e-01  -3.5497736012164804e-01  -3.5292793132894007e-01  -3.5818881540038228e-01  -3.6412688519285430e-01  -3.6304044339001018e-01  -3.5675183691744949e-01  -3.5587861967926337e-01  -3.5955240381108688e-01  -3.4324236545445197e-01  -3.6170092248895408e-01  -3.5453902519026803e-01  -3.5950662979064019e-01  -3.6094263630190898e-01  -3.6459798936312460e-01  -3.5880589708296351e-01  -3.5809992119163958e-01  -3.5140555769694293e-01  -3.5641874344897190e-01  -3.5222058967966863e-01  -3.4952418711834166e-01  -3.5565033548123270e-01  -3.5359107083315733e-01  -3.5016209026165901e-01  -3.5357455599770976e-01  -3.5353721656419973e-01  -3.6560345748421585e-01  -3.6101742567739403e-01  -3.6660822103968838e-01  -3.6069655309977239e-01  -3.6966485263688492e-01  -3.7296292680193016e-01  -3.7594903598745294e-01  -3.7050375694751891e-01  -3.6508958770937616e-01  -3.3635681570082537e-01  -3.4456226959653619e-01  -3.4661723266569772e-01  -3.5735027934073132e-01  -3.5767263363871798e-01  -3.6030334461447816e-01  -3.5803158959992665e-01  -3.5656636274608211e-01  -3.8019470831198932e-01  -3.6845859499158701e-01  -3.7853805545309344e-01  -3.7137701812129692e-01  -3.6447804437129455e-01  -3.5757544125106971e-01  -3.8017215344857708e-01  -3.7279587723122487e-01  -3.7529530547716422e-01  -3.3637234129024268e-01  -3.4354795186705744e-01  -3.4448426179905267e-01  -3.3812357638583934e-01  -3.5919525482988751e-01  -3.4907167226670477e-01  -3.4384383753445513e-01  -3.4721771649833055e-01  -3.3667213080283842e-01  -3.3147028221110414e-01  -3.5607062310354043e-01  -3.5418259984931177e-01  -3.5773100852883538e-01  -3.5591864766091441e-01  -3.6150090644372618e-01  -3.5843348655376289e-01  -3.5075252272309226e-01  -3.5166070641859720e-01  -3.8091635361659604e-01  -3.8082685030848840e-01  </DataArray> 
</PointData> 
</Piece>
</UnstructuredGrid>
</VTKFile>