<?xml version="1.0"?>
<VTKFile type="UnstructuredGrid"  version="0.1"  >
<UnstructuredGrid>
<Piece  NumberOfPoints="778" NumberOfCells="1401">
<Points>
<DataArray  type="Float64"  NumberOfComponents="3"  format="ascii">1 -1 0  6 -1 0  6 1 0  1 1 0  1 6 0  -1 6 0  -1 1 0  -6 1 0  -6 -1 0  -1 -1 0  -1 -6 0  1 -6 0  1 3.5 0  -1 3.5 0  -1 -3.5 0  1 -3.5 0  3.5 -1 0  3.5 1 0  -3.5 -1 0  -3.5 1 0  -1 -2.25 0  1 -2.25 0  2.25 -1 0  2.25 1 0  -1 2.25 0  1 2.25 0  -1 4.75 0  1 4.75 0  -4.75 -1 0  -4.75 1 0  -2.25 1 0  -2.25 -1 0  1 -4.75 0  -1 -4.75 0  4.75 1 0  4.75 -1 0  0 0 0  -2.875 0 0  -1.625 0 0  -4.125 0 0  -6 0 0  0 2.875 0  2.875 0 0  0 6 0  1.625 0 0  0 -2.875 0  0 -1.625 0  0 1.625 0  0 4.125 0  0 -6 0  0 -4.125 0  4.125 0 0  6 0 0  -0.109375 5.0625 0  -5.0625 -0.109375 0  -0.109375 -5.0625 0  5.0625 0.109375 0  0.8125 -0.1875 0  -0.1875 -0.8125 0  -0.8125 0.1875 0  -0.1875 0.8125 0  1 5.375 0  -5.375 1 0  1 -5.375 0  5.375 -1 0  0.53515625 0.46484375 0  -5.375 -1 0  -1 5.375 0  -1 -5.375 0  -0.5 -6 0  5.375 1 0  6 0.5 0  3.5 0.3046875 0  3.43125 -0.34765625 0  2.875 -1 0  4.125 1 0  0.3046875 3.5 0  -0.34765625 3.56875 0  -1 4.125 0  1 4.125 0  -0.3046875 2.25 0  0.34765625 2.18125 0  1 1.625 0  -1 -1.625 0  -0.3046875 -3.5 0  0.34765625 -3.56875 0  1 -4.125 0  0.3046875 -2.25 0  -0.34765625 -2.18125 0  -1 -4.125 0  -1 -2.875 0  1 -2.875 0  1 -1.625 0  1.625 -1 0  1.625 1 0  2.25 0.3046875 0  2.18125 -0.34765625 0  4.125 -1 0  2.875 1 0  1 2.875 0  -1 1.625 0  -1 2.875 0  -4.125 -1 0  -2.25 0.3046875 0  -2.31875 -0.34765625 0  -2.875 -1 0  -1.625 1 0  -4.125 1 0  -3.5 0.3046875 0  -3.56875 -0.34765625 0  -1.625 -1 0  -2.875 1 0  0.380626321794301 1.06853329530276 0  -1.110819327731092 -0.3739495798319328 0  0.3739495798319328 -1.110819327731092 0  1.151210293219304 0.3991939332620648 0  -0.5 -4.4375 0  0.5 -4.4375 0  5.481553398058253 -0.3712833737864077 0  0.5 4.4375 0  0.5 6 0  -0.522503783594538 -0.3265648647465863 0  -1.3125 0.5 0  -0.5 6 0  0.3265648647465863 -0.522503783594538 0  4.4375 0.5 0  4.4375 -0.5 0  0.5 -6 0  -6 -0.5 0  -5.481553398058253 0.3712833737864077 0  -4.55 -0.4296875 0  -4.4375 0.5 0  -0.5 4.4375 0  0.4792930825242718 5.026881067961165 0  0.4792930825242718 -5.026881067961165 0  -0.5 1.3125 0  1.3125 -0.5 0  -0.5 -1.3125 0  0.25 5.518539952962044 0  0.2125133872612723 -5.500076563152851 0  4.969341874373811 -0.5152550785163683 0  -4.969341874373811 0.5152550785163683 0  3.927189744345589 -0.4712876597840069 0  -5.554036458333333 -0.25 0  5.554036458333333 0.25 0  -0.4690710616438356 -5.462756849315069 0  -0.4690710616438356 5.462756849315069 0  -6 0.5 0  -1.59556436210848 -0.5 0  -3.058421751829955 -0.5 0  -0.5 2.731982421875 0  0.5 2.691578248170045 0  2.691578248170045 -0.5 0  1.641211254104555 0.5 0  0.5 -1.768017578125 0  0.5 -3.058421751829955 0  0.5 1.699267578125 0  3.018017578125 0.5 0  -0.5 -3.018017578125 0  -2.731982421875 0.5 0  6 -0.5 0  -4.050017120925308 -0.5006099332648871 0  -3.940668202764977 0.5371363767281105 0  3.940668202764977 0.5371363767281105 0  0.4517449476047904 3.958458083832335 0  -0.4517449476047904 -3.958458083832335 0  -1.809331797235023 0.5371363767281105 0  -0.4517449476047904 1.791541916167665 0  -0.0546875 4.59375 0  -5.006445312499999 -0.58984375 0  4.605643203883496 -0.04725424757281554 0  4.90625 0.5546875 0  -0.5546875 4.90625 0  0.04725424757281554 -4.605643203883496 0  -0.586116118210531 -4.995821561900013 0  -4.603710222472543 0.04846236095466061 0  -3.1875 0.65234375 0  0.6163907621110913 3.147502300973589 0  2.5625 0.65234375 0  0.6163907621110913 -2.602497699026411 0  -0.637456713551384 3.189259902731882 0  -0.637456713551384 -2.560740097268118 0  -0.34765625 0.34765625 0  -0.639453125 0.708203125 0  0.089630126953125 0.437286376953125 0  -0.4238281249999999 -1.746875 0  1.746875 -0.4238281249999999 0  -0.4238281249999999 4.003125 0  0.4238281249999999 -4.003125 0  -2.5625 -1 0  3.1875 -1 0  -0.09375 -1.21875 0  1.21875 -0.09375 0  0.4020305405760241 -0.1120343241705621 0  -0.6280191027904287 -0.7577505545748082 0  0.90625 -0.59375 0  -1.205500904741459 0.03633725387965409 0  -0.02129048848213058 1.202028574265107 0  -0.1120343241705621 -0.4020305405760241 0  1 1.3125 0  -2.003587563743074 -0.6442361556699288 0  0.6640077663259718 -1.395873598614549 0  5.6875 -1 0  0.6308138580859101 -5.592151086468728 0  -5.6875 -1 0  0.6568032075915271 5.612942566073222 0  5.616530031741774 0.6612875396772174 0  -5.6875 1 0  1.9375 1 0  -1.3125 -1 0  0.1524679547155687 -3.232579139388032 0  0.1524679547155687 2.517420860611968 0  -3.232579139388032 -0.1524679547155687 0  -1.932320553757026 -0.252759244693845 0  2.517420860611968 -0.1524679547155687 0  -0.04776045819569434 -2.464949198504599 0  -0.2420369079104247 3.187693796852321 0  3.751304711039982 -0.1203080877045035 0  -5.397601941771943 -0.609026059866711 0  1.3125 1 0  1.9375 -1 0  -0.6946315101963667 -2.018229242739021 0  -0.6946315101963667 3.731770757260979 0  1 -3.8125 0  2.014364435550335 0.6166648446293641 0  -1 5.6875 0  -1 -5.6875 0  -2.653476149871182 -0.5942957192996303 0  3.096523850128818 -0.5942957192996303 0  1 1.9375 0  -3.8125 -1 0  0.586975531244212 -0.7975955463807081 0  -0.2946248980953088 -4.743710873809568 0  2.625453376770019 0.2814788818359375 0  -3.124546623229981 0.2814788818359375 0  -0.1204856417894853 5.631800603217465 0  5.253862011026742 0.6581468962876398 0  -0.65234375 2.108701557941197 0  0.65234375 3.641298442058803 0  -0.65234375 -3.641298442058803 0  -0.25 -5.744880569758637 0  -4.4375 -1 0  -0.3166212631734941 -2.713595940002554 0  0.6591479224207506 0.1324305912687024 0  0.8660781906552419 0.6468634238104103 0  -0.9887189158197679 0.6452930723873549 0  0.3149351927204296 -1.460971774996065 0  -0.3572852727880474 -0.009629022788047503 0  2.09375 -0.6866724363772454 0  0.6866724363772454 -3.65625 0  0.6866724363772454 2.09375 0  -3.65625 -0.6866724363772454 0  -3.5371337890625 0.65234375 0  -0.1389584113023952 1.944025352615082 0  -2.151744288472698 0.65234375 0  -0.1389584113023951 -3.805974647384918 0  0.1389584113023951 3.805974647384918 0  -2.578772109813904 0.1857224367977529 0  3.171227890186096 0.1857224367977529 0  3.360315647536819 0.65234375 0  0.1857224367977528 -1.921227890186096 0  0.65234375 -2.110315647536819 0  1.894016528727564 0.2415406141485869 0  -3.738232421875 0 0  0.2516875549238616 3.139069895099618 0  -1.913724396854074 0.2011142179916434 0  0.1669456568161915 0.7843410671359501 0  -2.5625 1 0  -1 -3.1875 0  -1 2.5625 0  0.1736601499778735 4.857955663330752 0  -0.1893536587212888 2.577300639071919 0  -0.1893536587212888 -3.172699360928081 0  3.852271904453858 0.206603749322895 0  -3.8125 1 0  -0.1250095034621793 -5.421707592768541 0  3.8125 -1 0  3.617304217264373 -0.6578427703661498 0  0.2630176195580202 -2.636558318495885 0  0.2674330357770522 1.399517071108871 0  0.631726413079416 1.339254523727593 0  4.700571879807737 0.2813704945051134 0  0.7143844363649634 -3.319538455208831 0  2.430461544791169 -0.7143844363649634 0  0.7143844363649634 2.430461544791169 0  -3.319538455208831 -0.7143844363649634 0  5.687045771608623 -0.6520598572553891 0  -5.687045771608623 0.6520598572553891 0  -1.15625 -0.7048248829733235 0  3.438284572973296 -0.01860298867862281 0  -0.03021088078697859 3.451572359862192 0  2.216682837011589 -0.02159585961918548 0  -2.191580885932936 -0.03126387444658879 0  0.1857410764408683 1.895679405349457 0  3.103473238297955 -0.253270943723272 0  -2.646526761702045 -0.253270943723272 0  -2.333137350671861 -0.6791984914172315 0  -1 5.0625 0  -0.6971235589909319 5.213002544375844 0  0.01618705363819947 2.225929180591695 0  0.01618705363819947 -3.524070819408305 0  0.5690054882403073 0.7951310720450595 0  -0.5764940424412852 -3.329579265180942 0  -0.5764940424412852 2.420420734819058 0  3.8125 1 0  -5.372163860234628 0.04365139563106807 0  5.164108319316826 -0.225040894204947 0  -5.361952437854323 0.6744012088984681 0  -5.0625 1 0  5.286835586913878 -0.6616705837083201 0  -5.692815197359722 0.1186699900166531 0  5.663425996156958 -0.07763197815533956 0  -0.9219866027132193 -0.1143045829323572 0  -1.394333629759332 -0.2233077430199216 0  0.09322478991596644 -0.9616596638655462 0  5.0625 -1 0  -0.14412109375 -1.92169189453125 0  -4.28125 -0.7212148987671345 0  0.2649796277366407 0.1735162902120744 0  -4.907855692236596 0.1868230509619793 0  -1.9375 1 0  1 5.0625 0  0.6915124486819284 -5.272938212550202 0  0.683483242673902 5.284948082526911 0  2.5625 -1 0  -1 -3.8125 0  -1 1.9375 0  5.0625 1 0  -1 -1.9375 0  1 5.6875 0  1 -5.6875 0  -1.9375 -1 0  -1 -2.5625 0  -1 3.1875 0  1 -3.1875 0  1 -2.5625 0  1 2.5625 0  1 3.1875 0  -5.0625 -1 0  -1 -1.3125 0  1.3125 -1 0  -1 1.3125 0  -1 3.8125 0  -1 4.4375 0  -4.4375 1 0  4.4375 -1 0  4.4375 1 0  -1.3125 1 0  1 4.4375 0  1 -4.4375 0  -1 -5.0625 0  -1 -4.4375 0  -3.1875 1 0  2.5625 1 0  1 -1.9375 0  1 -1.3125 0  5.6875 1 0  1 3.8125 0  3.1875 1 0  -3.1875 -1 0  1 -5.0625 0  1.35138038998199 0.6675097549271188 0  -0.465625 0.986328125 0  1.435958105992309 0.2563920171199723 0  1.915914614192913 -0.145782394639918 0  -0.8764440609469509 -0.5746869313612541 0  5.355194559946098 0.01566259380337612 0  -5.69333042954964 -0.5242868300459975 0  1.78125 -0.7320750794491524 0  0.7320750794491525 -3.96875 0  -0.3959075548864684 5.166422468926435 0  -4.770522389068053 -0.2123670725088856 0  -4.714160156249999 -0.69234375 0  -4.273484403713342 -0.278160994327167 0  0.9642590244517505 0.08196089404241463 0  0.3500261717645397 -4.727285205957206 0  0.6740868006020392 -4.765147848348443 0  0.6797550207247084 -1.089747806381148 0  -5.186479934354063 0.3046329157552757 0  -5.263288238215326 -0.3369092276308425 0  -2.433484016245305 0.5442571297016638 0  0.1707808983307866 -3.82363304980935 0  -0.1554012991031027 3.867535742674252 0  4.855508096805579 -0.2283975605264581 0  3.644517238097614 0.5646428152488787 0  0.05699603874439441 -0.6452791208413911 0  -0.3550018917972689 -0.5695324323732931 0  0.6
[...]
<PointData  Scalars="u"> 
<DataArray  type="Float64"  Name="u"  format="ascii">-4.7879079954972648e-01  0.0000000000000000e+00  0.0000000000000000e+00  -4.7491340367543072e-01  -9.4948589182996934e-01  -9.4948589182996934e-01  -4.7544990400297005e-01  0.0000000000000000e+00  0.0000000000000000e+00  -4.7531533580380891e-01  -9.4948589182996934e-01  -9.4948589182996934e-01  -7.2545940726415570e-01  -7.2622371712601830e-01  -7.2536161555274425e-01  -7.2585937622008168e-01  -2.2388368130344455e-01  -2.2451237394136508e-01  -2.2372636842595398e-01  -2.2450650041981399e-01  -6.1386856292004766e-01  -6.1482264291495758e-01  -3.3545722093378560e-01  -3.3551747609453086e-01  -6.1477627532677415e-01  -6.1436033072813301e-01  -8.3696275298537193e-01  -8.3762992881480591e-01  -1.1210962715251861e-01  -1.1191396725091010e-01  -3.3601442655785219e-01  -3.3591866087727151e-01  -8.3817281803617483e-01  -8.3775507085780754e-01  -1.1286455092427043e-01  -1.1182278048040226e-01  -4.7385733872706165e-01  -2.7958035286875915e-01  -3.9021836340792015e-01  -1.6784252577075490e-01  0.0000000000000000e+00  -6.7016946525908905e-01  -2.7951501225927827e-01  -9.4948589182996934e-01  -3.8992381554277755e-01  -6.7016802286209654e-01  -5.5950594665824538e-01  -5.5950744065907987e-01  -7.8187923785848812e-01  -9.4948589182996934e-01  -7.8183947723382874e-01  -1.6774673789636071e-01  0.0000000000000000e+00  -8.6566309920065765e-01  -8.3980905783325760e-02  -8.6569815600758226e-01  -8.3881829574075653e-02  -4.5141153810818846e-01  -4.9704010862507991e-01  -4.5159629313714339e-01  -4.9702908004071950e-01  -8.9355593340889117e-01  -5.5720638929912136e-02  -8.9324742842014759e-01  -5.5509990931823697e-02  -4.7146581265104592e-01  -5.7048308417003570e-02  -8.9391991265673465e-01  -8.9352316789890274e-01  -9.4948589182996934e-01  -5.5657744457121447e-02  0.0000000000000000e+00  -2.2376859665348039e-01  -2.2982767544772326e-01  -2.7966739632783078e-01  -1.6749350658805465e-01  -7.2603135267055652e-01  -7.3217748122422166e-01  -7.8181080307285067e-01  -7.8197490045673235e-01  -6.1435654688191232e-01  -6.0820672503357875e-01  -5.5762512064517877e-01  -5.5718878480395928e-01  -7.2596637035480494e-01  -7.3214241236221711e-01  -7.8181724954450216e-01  -6.1436146411379211e-01  -6.0818214131249759e-01  -7.8131757661747236e-01  -6.7052996316876745e-01  -6.7073980947030110e-01  -5.5753420079827720e-01  -3.9279386087024692e-01  -3.9246117720549595e-01  -3.3528504608520826e-01  -3.4139933952931667e-01  -1.6805714591856372e-01  -2.7941458185755080e-01  -6.6957983925930653e-01  -5.5739274020581109e-01  -6.6969944107571466e-01  -1.6807795491318234e-01  -3.3550417013993422e-01  -3.2934608660472958e-01  -2.7947821731638334e-01  -3.9318279589306782e-01  -1.6809480252883185e-01  -2.2377139728181192e-01  -2.1757862088708019e-01  -3.9274459430195979e-01  -2.7952628089153597e-01  -5.1155874101916032e-01  -4.3417211600303629e-01  -5.1513538212735865e-01  -4.3137699988165107e-01  -8.0980678693384989e-01  -8.0975886547957487e-01  -4.6460122020554780e-02  -8.0980086204669699e-01  -9.4948589182996934e-01  -4.6802256532949310e-01  -4.1946382509111024e-01  -9.4948589182996934e-01  -4.8015181500147419e-01  -1.3983024811195660e-01  -1.3977836422083270e-01  -9.4948589182996934e-01  0.0000000000000000e+00  -4.6459039542127767e-02  -1.2987664613323233e-01  -1.3990466664651521e-01  -8.0969737775312978e-01  -8.6242893573571655e-01  -8.6249129446599282e-01  -5.3044678829280156e-01  -4.1897215160721379e-01  -5.3016610318363089e-01  -9.0644291735842553e-01  -9.0480114948684476e-01  -9.2324262224419459e-02  -9.2249290453866276e-02  -1.8544312705640931e-01  -3.9983664550105880e-02  -3.9874255552156138e-02  -9.0142806692307231e-01  -9.0143330600055860e-01  0.0000000000000000e+00  -3.9428879710334813e-01  -2.6317550838532694e-01  -6.5742133169130212e-01  -6.5374465279034644e-01  -2.9590782095963430e-01  -3.8981350112482266e-01  -5.7107710221391350e-01  -6.8658118471107299e-01  -5.6495185441367957e-01  -2.6678722986559134e-01  -6.8288600386760678e-01  -2.9230482058381008e-01  0.0000000000000000e+00  -1.7455211517717317e-01  -1.8445692757760798e-01  -1.8437436052884582e-01  -7.6707019441315094e-01  -7.6691385744413187e-01  -3.7510069921544426e-01  -5.7325906712526653e-01  -8.2374630378893177e-01  -8.9117592121689890e-02  -1.2477175746724359e-01  -9.7874802621504081e-02  -8.5167458491609938e-01  -8.2482592866427118e-01  -8.5976697553067583e-01  -1.2501733688320854e-01  -2.5159746252738924e-01  -6.9457089484302503e-01  -3.0749565502501536e-01  -6.4579955042451709e-01  -6.9815555566857568e-01  -6.4215159935858623e-01  -4.7418774497577076e-01  -4.7815281646872276e-01  -4.8067787025146103e-01  -5.6933768059701073e-01  -3.8014824332208202e-01  -7.7101435717830691e-01  -7.7097883798729161e-01  -3.0706537566748815e-01  -2.5177334597236867e-01  -5.2589176331336995e-01  -4.2311558941465383e-01  -4.6842949363178521e-01  -4.8096028539337088e-01  -4.5555279586609621e-01  -4.2419707452397704e-01  -5.2466644102115145e-01  -4.7944580087850058e-01  -5.2900268665594630e-01  -3.5780024507226338e-01  -5.3624696334170796e-01  -2.8352419834803948e-02  -9.1306134252076143e-01  -2.7408609647656058e-02  -9.1491526190740502e-01  -3.4241177951328951e-02  -2.8915039302229963e-02  -3.6353001778014238e-01  -4.2192259490104672e-01  -7.0210851239981342e-01  -6.3824049355380308e-01  -2.4762981723065425e-01  -3.6370022724158324e-01  -3.1140802582036525e-01  -6.3357366416537730e-01  -6.9811595755497780e-01  -2.0117640368382975e-01  -5.4055561230310280e-02  -4.2219767755426663e-01  -3.6391069979332047e-01  -5.9323425874151514e-01  -7.4685627268332400e-01  -7.5418142023228885e-01  -3.5661396438054155e-01  -9.2098911585144216e-01  -9.2096714778977706e-01  -2.9946269231729222e-01  -2.5973299181377918e-01  -5.8563447078774666e-01  -1.9550488588668116e-01  -4.8555653726604808e-01  -8.3719229700900810e-01  -3.0181818851843212e-01  -2.5730561662585422e-01  -9.1655317065222330e-01  -6.6760408785089806e-02  -6.0164792314490789e-01  -7.3872938839896052e-01  -7.3854669714080767e-01  -9.2664095488805309e-01  -1.3960739335387387e-01  -6.5578235720160505e-01  -4.5894344402489995e-01  -4.5996892403929479e-01  -4.5062916796747282e-01  -5.4468722347087606e-01  -4.6938721450316995e-01  -3.4944933659464367e-01  -7.3997480950921257e-01  -6.0023354962422437e-01  -2.0976531630604550e-01  -2.2055745910121016e-01  -5.8728558335268155e-01  -3.4431630377745698e-01  -7.5331373157496284e-01  -7.5338816315741808e-01  -3.0602656464206807e-01  -2.5307588903461220e-01  -2.3606523542334804e-01  -5.8521654118579747e-01  -6.0175108674515299e-01  -3.6681374894131480e-01  -2.0242733253203685e-01  -6.9378713655803503e-01  -3.6525421359264876e-01  -4.9559307516139578e-01  -3.0653491047646730e-01  -6.9773707735558699e-01  -6.4254428855226464e-01  -8.4736814854158482e-01  -6.4360159471572742e-01  -6.9672926229585608e-01  -1.9212181475831885e-01  -1.9523215024474794e-01  -8.9779499634932980e-01  -1.9541269529685187e-01  -2.1315437634405257e-01  -6.4886570053918535e-01  -5.3977585540070072e-01  -5.3072762043980726e-01  -1.1631150495472907e-01  -7.0993503174477024e-01  -3.1927371544361544e-01  -6.3033061818533431e-01  -2.3983843955536929e-01  -2.8167998120870303e-02  -2.8228853958563060e-02  -4.3700329749873768e-01  -2.2919678975679514e-01  -7.2170387369305755e-01  -3.3815040373576444e-01  -3.4058506588467630e-01  -5.8296175462138022e-01  -2.5909966555400266e-01  -3.0002080534727854e-01  -3.2830511281911301e-01  -8.6645073811183049e-01  -8.7899597218384395e-01  -6.1227490753680147e-01  -7.2813882587000123e-01  -4.8586897025276915e-01  -7.1079672852119780e-01  -6.2947628305301251e-01  -1.9476830276701271e-01  -5.6247873985501358e-02  -7.4833837414737592e-02  -5.7042362288365914e-02  -8.3930275668641557e-02  -6.3840396284729636e-02  -2.7531182014745092e-02  -3.0117696269150052e-02  -4.4450040092102372e-01  -4.0999988670632864e-01  -5.0716195721671542e-01  -8.4577800707533263e-02  -5.8526220303659848e-01  -1.5385794948856843e-01  -4.7249868540183154e-01  -9.7792939778384380e-02  -3.6449207227382108e-01  -8.6526685893532151e-01  -8.8455845134997046e-01  -8.8563214990969907e-01  -3.0702992401545548e-01  -7.5449767577647164e-01  -5.8544843211521980e-01  -8.3448647295438494e-02  -5.8542161670869419e-01  -9.2227258962219338e-01  -9.2239823311903701e-01  -3.6470237957624113e-01  -6.4283180924441730e-01  -6.9752960179389867e-01  -6.9792897772102902e-01  -6.4138884455369094e-01  -6.4234588006806204e-01  -6.9899074887667945e-01  -8.4096512395828563e-02  -5.2964612999638783e-01  -4.2485014585642067e-01  -5.2965676475894086e-01  -7.5442722958642028e-01  -8.0936926128567355e-01  -1.3972992226695810e-01  -1.3950770457956002e-01  -1.3999048757863494e-01  -4.2178476367038698e-01  -8.0978265101706737e-01  -8.0953180269027236e-01  -8.6669037543955196e-01  -8.0953374839289272e-01  -2.5166610832510139e-01  -3.0770169349399368e-01  -5.8558046533084684e-01  -5.2922233129471752e-01  -2.7122168392644655e-02  -7.5438343867672120e-01  -2.5229841231161154e-01  -2.5202298374217874e-01  -8.6530801747471231e-01  -4.1814911786216191e-01  -5.0342124818922573e-01  -4.0647091281331016e-01  -3.6476384132845169e-01  -4.5779536248914970e-01  -5.7691359948483331e-02  -2.7610683218151168e-02  -3.7775358535276982e-01  -7.6784763328506578e-01  -8.7507948118955736e-01  -1.1012377044127671e-01  -1.1515500764127819e-01  -1.5456674729205491e-01  -4.4136825966207005e-01  -8.3569487495429451e-01  -8.3914332743472575e-01  -5.0732117278533773e-01  -7.2828888325473629e-02  -6.6071372814033358e-02  -3.1919919950520681e-01  -7.5491013000462781e-01  -7.5888506289438384e-01  -1.0242571764483580e-01  -2.1078072868614614e-01  -4.8915754346902629e-01  -4.8146916982483728e-01  -4.6653334711449745e-01  -4.7586831480961689e-01  -1.8512804027734286e-01  -8.5163783949483574e-01  -8.7646231096726601e-01  -8.7594366293959824e-01  -8.3597317501722834e-01  -7.9586325393328294e-01  -1.2574677100668422e-01  -1.2582838598869425e-01  -4.0694298350436370e-01  -4.3809582334637837e-01  -9.2441737529335977e-01  -5.4190230026725594e-01  -5.0408204107198396e-01  -4.0364217358249849e-01  -5.0849410333794309e-01  -5.4564283245609058e-01  -7.9342570057136519e-01  -7.9342743256414128e-01  -4.3704288799596208e-01  -5.5258371736693745e-01  -1.4810898999479644e-01  -8.3299190554179137e-01  -8.0515407075711010e-01  -8.4271695833625726e-01  -7.9574673303713472e-01  -8.2887994572336066e-01  -8.0503474224529048e-01  -5.0970347554930617e-01  -5.4277817900033987e-01  -4.0677916335523812e-01  -3.9958041631342484e-01  -7.8640077727245694e-01  -1.4441317460325065e-01  -1.6074448619473139e-01  -1.4788614124917213e-01  -1.6086143624290020e-01  -1.6364756909128078e-01  -1.1655971111989107e-01  -9.2444202310398216e-01  -8.2373590518939854e-01  -7.9579719083540656e-01  -6.6119123108150449e-02  -9.2596981613690232e-01  -4.1020517235806353e-01  -4.3776856800385200e-01  -4.5947347477595729e-01  -1.9771039547315442e-01  -4.5201357364459049e-01  -7.6788137799649825e-01  -5.7195204249519871e-01  -8.9101561871433721e-01  -8.4962518709711143e-01  -1.6287398855763874e-01  0.0000000000000000e+00  -1.1576982199701304e-01  -8.7959755363641057e-01  -1.7242152865220856e-01  -6.0700745143310764e-01  -5.7198233444031710e-01  -1.8563792532821710e-01  -7.7099675297147996e-01  -9.4948589182996934e-01  -2.3749527010062435e-01  -3.3254631071629476e-01  -4.5999523988256935e-01  -5.0525468609555191e-01  -3.7933163596380998e-01  -7.2299928299444738e-01  -6.1727527664470705e-01  -9.2431383084160390e-01  -9.2774308205654410e-01  -9.2623467148008687e-01  -1.9001231914383579e-01  -2.1197468913335668e-02  -8.8105628753600873e-01  -9.2589100932772017e-01  -7.6204051131538653e-01  -2.2248289135347987e-02  -6.3221286252141362e-01  -6.5614819819396586e-01  -6.8409730122334944e-01  -6.7328503826629849e-01  -6.6893630364483903e-01  -2.8150565474189448e-01  -2.8907689468110748e-01  -2.7754651445518785e-01  -2.7000409853123813e-01  -2.3977440580012713e-01  -3.1927042754932289e-01  -7.0995819628529233e-01  -6.3140767887021410e-01  -1.0207824127088995e-01  -1.1588993519713763e-01  -8.8912762325151529e-01  -2.2774522279931986e-01  -2.5831251756666979e-01  -2.8321445957148866e-01  -6.4801181313147516e-01  -6.9222306133927025e-01  -2.9352402538990630e-01  -5.7207826360746972e-01  -6.7310638408916479e-01  -7.1192475481815287e-01  -6.2823714627087202e-01  -4.9408562862588407e-01  -6.7303369554528525e-01  -2.8102615503738343e-01  -2.7808514075971030e-01  -6.6643048000966121e-01  -3.7809657938891356e-01  -9.4948589182996934e-01  -6.9619732352523889e-02  0.0000000000000000e+00  -2.0078816058458421e-02  -2.2666304943704831e-02  0.0000000000000000e+00  -1.7104198953306551e-01  -2.0759376731817400e-01  -9.0225653411403806e-01  -6.2242326438057427e-01  -7.1807832422064055e-01  -3.1946286184868955e-01  -9.0202700355385401e-01  -8.6149110263555317e-01  -3.1660969091661373e-01  -5.8691951334870551e-01  -1.9661739069069867e-01  -4.6430160210571358e-01  -7.8917218538109069e-01  -5.9414628396512237e-01  -2.4401172804809715e-01  -5.6144024206376608e-01  -7.8929481437755133e-01  -5.2086452836474995e-01  -4.1733965924477495e-01  -3.8882262215609409e-01  -8.8842598547615859e-01  -4.6122193380607890e-01  -5.4219885980880467e-01  -5.3544399688447353e-01  -5.2139115469582797e-01  -4.3582700064377228e-01  -5.4163619216629466e-01  -3.7702063048410545e-01  -3.6436294581434880e-01  -4.8270065274648311e-01  -4.8072505978569258e-01  -4.5537020300250680e-01  -4.4740137671929586e-01  -4.3861015601988007e-01  -3.8687227088010967e-01  -5.6493075375431479e-01  -4.4555479848488166e-01  -4.3981437602806328e-01  -4.9900904566943338e-01  -4.9226292573777541e-01  -4.8411441981348680e-01  -4.5231524961279146e-01  -5.0386357303682916e-01  -5.0050543366055467e-01  -4.7308464318829396e-01  -4.7527387752748657e-01  -4.7352517675739281e-01  -4.4932206411819331e-01  -4.7395099158387693e-01  -4.6693029948749876e-01  -4.7185902078887315e-01  -4.7794572108254602e-01  -4.8393725256882142e-01  -5.4416222803162106e-01  -4.3092956132824217e-01  -5.6918770004855013e-01  -5.8628089100311587e-01  -4.2184545310001409e-01  -4.0688329979896071e-01  -3.6497353057493093e-01  -3.6077657991096490e-01  -5.2542186218011533e-01  -3.8241193123270423e-01  -3.7872809487310050e-01  -3.7622175279653797e-01  -5.4858530443263587e-01  -5.5178162900146799e-01  -4.2391254944764178e-01  -4.6499480171510049e-01  -4.6811404552656621e-01  -4.6661030384894892e-01  -4.7728265566862349e-01  -3.9147242086438677e-01  -4.2277083997450876e-01  -4.8146505570721077e-01  -4.8670861111678726e-01  -5.7408795826801706e-01  -4.2077346655014591e-01  -5.2830250766969511e-01  -5.1765865880022333e-01  -5.2689543825808893e-01  -4.3774940833228487e-01  -5.5421653088937928e-01  -5.7937016926273643e-01  -5.7115593618400473e-01  -5.7327934046678430e-01  -5.6641206403109745e-01  -5.8729245076113989e-01  -5.9388274945530595e-01  -4.8990262947120439e-01  -4.8823287108123842e-01  -5.7225119278748504e-01  -5.2514308428925049e-01  -4.1165193631458019e-01  -4.5453537389747772e-01  -4.7558275623383328e-01  -4.7247486161550861e-01  -4.9105525743923423e-01  -4.9513690431418955e-01  -4.8313713093498234e-01  -4.3491967735006215e-01  -4.2340952965445960e-01  -4.0774648267808716e-01  -5.3636542741837923e-01  -5.5184617812211612e-01  -4.8963156796439639e-01  -4.7526911209995293e-01  -5.2082355539317515e-01  -4.0189653082495763e-01  -3.9382948192831579e-01  -3.7860438906928129e-01  -4.0539398448231623e-01  -3.7333878010778271e-01  -3.6173801109077930e-01  -4.7107505021919255e-01  -4.9184860866332736e-01  -4.9751464356345565e-01  -4.3618522890911321e-01  -4.2598714869966808e-01  -4.5060342505474571e-01  -4.8161161792011614e-01  -4.6721998575561524e-01  -4.0346066788287904e-01  -5.0937682161247178e-01  -5.1894096882999918e-01  -4.6179367213731581e-01  -4.2843552834727194e-01  -5.1056719191203359e-01  -5.6445695730945966e-01  -5.8874232891207057e-01  -5.7293346883026219e-01  -5.4985201113936621e-01  -4.5993408670921437e-01  -4.3661902986620960e-01  -5.1633014142164368e-01  -5.4287247690445806e-01  -4.4086165838697278e-01  -5.4696309749602023e-01  -5.3325936755766590e-01  -3.6571040174424929e-01  -3.5245998632542452e-01  -3.8491884801690174e-01  -4.4886017526051847e-01  -3.9210878965494128e-01  -3.9314369202298122e-01  -3.9948333188923690e-01  -4.0685095912472186e-01  -4.3813503246326807e-01  -5.1692278623141763e-01  -4.7291534163314253e-01  -5.1540002883483571e-01  -5.3989203486794313e-01  -5.1920148606242122e-01  -3.8634762250789262e-01  -4.1149832992683949e-01  -4.0142142598798758e-01  -4.3753428565420904e-01  -4.5713987633057562e-01  -4.6437748649323679e-01  -5.5760660720410693e-01  -5.5852107351846547e-01  -4.7053447006895488e-01  -4.7561354209013845e-01  -5.1503355421859465e-01  -3.9827506151004494e-01  -4.6875512282120241e-01  -4.6185461139761580e-01  -5.7827592931660421e-01  -5.4970806099648817e-01  -5.5194942495340926e-01  -5.0800780943695067e-01  -5.1009205845952132e-01  -4.2215517373073541e-01  -4.0224622756141104e-01  -4.0004442178085553e-01  -4.6375644196828303e-01  -4.5855390969663834e-01  -4.6703959340552920e-01  -4.7425147852333155e-01  -4.7480185301601729e-01  -4.8646540753562789e-01  -4.9091163163422030e-01  -4.5854429470150837e-01  -4.6139259353137924e-01  -4.5253207927559236e-01  -4.4537973399594533e-01  -4.4536707623131799e-01  -4.4119022235260491e-01  -4.3469480643331498e-01  -4.4940109832580549e-01  -4.5385048512329085e-01  -5.0300505412624552e-01  -4.7782843306299244e-01  -4.8711041853564635e-01  -4.8997130130816696e-01  -4.8536261140183834e-01  -4.9005430301041286e-01  -4.6199465269269679e-01  -4.4482064135725030e-01  -5.0085196977378166e-01  -4.9720395961552388e-01  -4.6363800337594246e-01  -4.6973185746413515e-01  -4.6694537623877064e-01  -4.7439081123608418e-01  -4.8179165113658523e-01  -4.8068080518036771e-01  -4.7273674980895863e-01  -4.7146754550926678e-01  -4.7628250107815256e-01  -4.5492858689203008e-01  -4.7903625220618695e-01  -4.6986820622748549e-01  -4.7620411619443814e-01  -4.7783158839058665e-01  -4.8262261684750507e-01  -4.7515281077574634e-01  -4.7436501698715983e-01  -4.6563561637589768e-01  -4.7218640126250566e-01  -4.6679690903189225e-01  -4.6320599827872622e-01  -4.7125873414055097e-01  -4.6855297026050746e-01  -4.6405768711981521e-01  -4.6822038787102843e-01  -4.6825957394044465e-01  -4.8398169676163566e-01  -4.7816320598273321e-01  -4.8520743497196139e-01  -4.7770607755400213e-01  -4.8903314380975133e-01  -4.9329357408888613e-01  -4.9715312363731368e-01  -4.9013996235654317e-01  -4.8332262942661813e-01  -4.4593862929539951e-01  -4.5672369367218990e-01  -4.5940123190372706e-01  -4.7351964211833414e-01  -4.7392830480846942e-01  -4.7727794336853946e-01  -4.7437960477511115e-01  -4.7245342217067154e-01  -5.0238930911636026e-01  -4.8714982193777151e-01  -5.0025482140067046e-01  -4.9076155205193167e-01  -4.8229163419375082e-01  -4.7381191468473799e-01  -5.0248136799987098e-01  -4.9308888948761459e-01  -4.9622646107646662e-01  -4.4592634919328539e-01  -4.5534521249724946e-01  -4.5659366803130430e-01  -4.4825532217713909e-01  -4.7507430243913379e-01  -4.6244777587877040e-01  -4.5544611463814144e-01  -4.6005580090593140e-01  -4.4629751035202531e-01  -4.3943623204668175e-01  -4.7163807146386194e-01  -4.6926853973602672e-01  -4.7395472147503526e-01  -4.7163701270213199e-01  -4.7866130624942865e-01  -4.7467247687054076e-01  -4.6466966957054417e-01  -4.6595173494831593e-01  -5.0347960035840889e-01  -5.0333117513471926e-01  </DataArray> 
</PointData> 
</Piece>
</UnstructuredGrid>
</VTKFile>