<?xml version="1.0"?>
<VTKFile type="UnstructuredGrid"  version="0.1"  >
<UnstructuredGrid>
<Piece  NumberOfPoints="778" NumberOfCells="1401">
<Points>
<DataArray  type="Float64"  NumberOfComponents="3"  format="ascii">1 -1 0  6 -1 0  6 1 0  1 1 0  1 6 0  -1 6 0  -1 1 0  -6 1 0  -6 -1 0  -1 -1 0  -1 -6 0  1 -6 0  1 3.5 0  -1 3.5 0  -1 -3.5 0  1 -3.5 0  3.5 -1 0  3.5 1 0  -3.5 -1 0  -3.5 1 0  -1 -2.25 0  1 -2.25 0  2.25 -1 0  2.25 1 0  -1 2.25 0  1 2.25 0  -1 4.75 0  1 4.75 0  -4.75 -1 0  -4.75 1 0  -2.25 1 0  -2.25 -1 0  1 -4.75 0  -1 -4.75 0  4.75 1 0  4.75 -1 0  0 0 0  -2.875 0 0  -1.625 0 0  -4.125 0 0  -6 0 0  0 2.875 0  2.875 0 0  0 6 0  1.625 0 0  0 -2.875 0  0 -1.625 0  0 1.625 0  0 4.125 0  0 -6 0  0 -4.125 0  4.125 0 0  6 0 0  -0.109375 5.0625 0  -5.0625 -0.109375 0  -0.109375 -5.0625 0  5.0625 0.109375 0  0.8125 -0.1875 0  -0.1875 -0.8125 0  -0.8125 0.1875 0  -0.1875 0.8125 0  1 5.375 0  -5.375 1 0  1 -5.375 0  5.375 -1 0  0.53515625 0.46484375 0  -5.375 -1 0  -1 5.375 0  -1 -5.375 0  -0.5 -6 0  5.375 1 0  6 0.5 0  3.5 0.3046875 0  3.43125 -0.34765625 0  2.875 -1 0  4.125 1 0  0.3046875 3.5 0  -0.34765625 3.56875 0  -1 4.125 0  1 4.125 0  -0.3046875 2.25 0  0.34765625 2.18125 0  1 1.625 0  -1 -1.625 0  -0.3046875 -3.5 0  0.34765625 -3.56875 0  1 -4.125 0  0.3046875 -2.25 0  -0.34765625 -2.18125 0  -1 -4.125 0  -1 -2.875 0  1 -2.875 0  1 -1.625 0  1.625 -1 0  1.625 1 0  2.25 0.3046875 0  2.18125 -0.34765625 0  4.125 -1 0  2.875 1 0  1 2.875 0  -1 1.625 0  -1 2.875 0  -4.125 -1 0  -2.25 0.3046875 0  -2.31875 -0.34765625 0  -2.875 -1 0  -1.625 1 0  -4.125 1 0  -3.5 0.3046875 0  -3.56875 -0.34765625 0  -1.625 -1 0  -2.875 1 0  0.380626321794301 1.06853329530276 0  -1.110819327731092 -0.3739495798319328 0  0.3739495798319328 -1.110819327731092 0  1.151210293219304 0.3991939332620648 0  -0.5 -4.4375 0  0.5 -4.4375 0  5.481553398058253 -0.3712833737864077 0  0.5 4.4375 0  0.5 6 0  -0.522503783594538 -0.3265648647465863 0  -1.3125 0.5 0  -0.5 6 0  0.3265648647465863 -0.522503783594538 0  4.4375 0.5 0  4.4375 -0.5 0  0.5 -6 0  -6 -0.5 0  -5.481553398058253 0.3712833737864077 0  -4.55 -0.4296875 0  -4.4375 0.5 0  -0.5 4.4375 0  0.4792930825242718 5.026881067961165 0  0.4792930825242718 -5.026881067961165 0  -0.5 1.3125 0  1.3125 -0.5 0  -0.5 -1.3125 0  0.25 5.518539952962044 0  0.2125133872612723 -5.500076563152851 0  4.969341874373811 -0.5152550785163683 0  -4.969341874373811 0.5152550785163683 0  3.927189744345589 -0.4712876597840069 0  -5.554036458333333 -0.25 0  5.554036458333333 0.25 0  -0.4690710616438356 -5.462756849315069 0  -0.4690710616438356 5.462756849315069 0  -6 0.5 0  -1.59556436210848 -0.5 0  -3.058421751829955 -0.5 0  -0.5 2.731982421875 0  0.5 2.691578248170045 0  2.691578248170045 -0.5 0  1.641211254104555 0.5 0  0.5 -1.768017578125 0  0.5 -3.058421751829955 0  0.5 1.699267578125 0  3.018017578125 0.5 0  -0.5 -3.018017578125 0  -2.731982421875 0.5 0  6 -0.5 0  -4.050017120925308 -0.5006099332648871 0  -3.940668202764977 0.5371363767281105 0  3.940668202764977 0.5371363767281105 0  0.4517449476047904 3.958458083832335 0  -0.4517449476047904 -3.958458083832335 0  -1.809331797235023 0.5371363767281105 0  -0.4517449476047904 1.791541916167665 0  -0.0546875 4.59375 0  -5.006445312499999 -0.58984375 0  4.605643203883496 -0.04725424757281554 0  4.90625 0.5546875 0  -0.5546875 4.90625 0  0.04725424757281554 -4.605643203883496 0  -0.586116118210531 -4.995821561900013 0  -4.603710222472543 0.04846236095466061 0  -3.1875 0.65234375 0  0.6163907621110913 3.147502300973589 0  2.5625 0.65234375 0  0.6163907621110913 -2.602497699026411 0  -0.637456713551384 3.189259902731882 0  -0.637456713551384 -2.560740097268118 0  -0.34765625 0.34765625 0  -0.639453125 0.708203125 0  0.089630126953125 0.437286376953125 0  -0.4238281249999999 -1.746875 0  1.746875 -0.4238281249999999 0  -0.4238281249999999 4.003125 0  0.4238281249999999 -4.003125 0  -2.5625 -1 0  3.1875 -1 0  -0.09375 -1.21875 0  1.21875 -0.09375 0  0.4020305405760241 -0.1120343241705621 0  -0.6280191027904287 -0.7577505545748082 0  0.90625 -0.59375 0  -1.205500904741459 0.03633725387965409 0  -0.02129048848213058 1.202028574265107 0  -0.1120343241705621 -0.4020305405760241 0  1 1.3125 0  -2.003587563743074 -0.6442361556699288 0  0.6640077663259718 -1.395873598614549 0  5.6875 -1 0  0.6308138580859101 -5.592151086468728 0  -5.6875 -1 0  0.6568032075915271 5.612942566073222 0  5.616530031741774 0.6612875396772174 0  -5.6875 1 0  1.9375 1 0  -1.3125 -1 0  0.1524679547155687 -3.232579139388032 0  0.1524679547155687 2.517420860611968 0  -3.232579139388032 -0.1524679547155687 0  -1.932320553757026 -0.252759244693845 0  2.517420860611968 -0.1524679547155687 0  -0.04776045819569434 -2.464949198504599 0  -0.2420369079104247 3.187693796852321 0  3.751304711039982 -0.1203080877045035 0  -5.397601941771943 -0.609026059866711 0  1.3125 1 0  1.9375 -1 0  -0.6946315101963667 -2.018229242739021 0  -0.6946315101963667 3.731770757260979 0  1 -3.8125 0  2.014364435550335 0.6166648446293641 0  -1 5.6875 0  -1 -5.6875 0  -2.653476149871182 -0.5942957192996303 0  3.096523850128818 -0.5942957192996303 0  1 1.9375 0  -3.8125 -1 0  0.586975531244212 -0.7975955463807081 0  -0.2946248980953088 -4.743710873809568 0  2.625453376770019 0.2814788818359375 0  -3.124546623229981 0.2814788818359375 0  -0.1204856417894853 5.631800603217465 0  5.253862011026742 0.6581468962876398 0  -0.65234375 2.108701557941197 0  0.65234375 3.641298442058803 0  -0.65234375 -3.641298442058803 0  -0.25 -5.744880569758637 0  -4.4375 -1 0  -0.3166212631734941 -2.713595940002554 0  0.6591479224207506 0.1324305912687024 0  0.8660781906552419 0.6468634238104103 0  -0.9887189158197679 0.6452930723873549 0  0.3149351927204296 -1.460971774996065 0  -0.3572852727880474 -0.009629022788047503 0  2.09375 -0.6866724363772454 0  0.6866724363772454 -3.65625 0  0.6866724363772454 2.09375 0  -3.65625 -0.6866724363772454 0  -3.5371337890625 0.65234375 0  -0.1389584113023952 1.944025352615082 0  -2.151744288472698 0.65234375 0  -0.1389584113023951 -3.805974647384918 0  0.1389584113023951 3.805974647384918 0  -2.578772109813904 0.1857224367977529 0  3.171227890186096 0.1857224367977529 0  3.360315647536819 0.65234375 0  0.1857224367977528 -1.921227890186096 0  0.65234375 -2.110315647536819 0  1.894016528727564 0.2415406141485869 0  -3.738232421875 0 0  0.2516875549238616 3.139069895099618 0  -1.913724396854074 0.2011142179916434 0  0.1669456568161915 0.7843410671359501 0  -2.5625 1 0  -1 -3.1875 0  -1 2.5625 0  0.1736601499778735 4.857955663330752 0  -0.1893536587212888 2.577300639071919 0  -0.1893536587212888 -3.172699360928081 0  3.852271904453858 0.206603749322895 0  -3.8125 1 0  -0.1250095034621793 -5.421707592768541 0  3.8125 -1 0  3.617304217264373 -0.6578427703661498 0  0.2630176195580202 -2.636558318495885 0  0.2674330357770522 1.399517071108871 0  0.631726413079416 1.339254523727593 0  4.700571879807737 0.2813704945051134 0  0.7143844363649634 -3.319538455208831 0  2.430461544791169 -0.7143844363649634 0  0.7143844363649634 2.430461544791169 0  -3.319538455208831 -0.7143844363649634 0  5.687045771608623 -0.6520598572553891 0  -5.687045771608623 0.6520598572553891 0  -1.15625 -0.7048248829733235 0  3.438284572973296 -0.01860298867862281 0  -0.03021088078697859 3.451572359862192 0  2.216682837011589 -0.02159585961918548 0  -2.191580885932936 -0.03126387444658879 0  0.1857410764408683 1.895679405349457 0  3.103473238297955 -0.253270943723272 0  -2.646526761702045 -0.253270943723272 0  -2.333137350671861 -0.6791984914172315 0  -1 5.0625 0  -0.6971235589909319 5.213002544375844 0  0.01618705363819947 2.225929180591695 0  0.01618705363819947 -3.524070819408305 0  0.5690054882403073 0.7951310720450595 0  -0.5764940424412852 -3.329579265180942 0  -0.5764940424412852 2.420420734819058 0  3.8125 1 0  -5.372163860234628 0.04365139563106807 0  5.164108319316826 -0.225040894204947 0  -5.361952437854323 0.6744012088984681 0  -5.0625 1 0  5.286835586913878 -0.6616705837083201 0  -5.692815197359722 0.1186699900166531 0  5.663425996156958 -0.07763197815533956 0  -0.9219866027132193 -0.1143045829323572 0  -1.394333629759332 -0.2233077430199216 0  0.09322478991596644 -0.9616596638655462 0  5.0625 -1 0  -0.14412109375 -1.92169189453125 0  -4.28125 -0.7212148987671345 0  0.2649796277366407 0.1735162902120744 0  -4.907855692236596 0.1868230509619793 0  -1.9375 1 0  1 5.0625 0  0.6915124486819284 -5.272938212550202 0  0.683483242673902 5.284948082526911 0  2.5625 -1 0  -1 -3.8125 0  -1 1.9375 0  5.0625 1 0  -1 -1.9375 0  1 5.6875 0  1 -5.6875 0  -1.9375 -1 0  -1 -2.5625 0  -1 3.1875 0  1 -3.1875 0  1 -2.5625 0  1 2.5625 0  1 3.1875 0  -5.0625 -1 0  -1 -1.3125 0  1.3125 -1 0  -1 1.3125 0  -1 3.8125 0  -1 4.4375 0  -4.4375 1 0  4.4375 -1 0  4.4375 1 0  -1.3125 1 0  1 4.4375 0  1 -4.4375 0  -1 -5.0625 0  -1 -4.4375 0  -3.1875 1 0  2.5625 1 0  1 -1.9375 0  1 -1.3125 0  5.6875 1 0  1 3.8125 0  3.1875 1 0  -3.1875 -1 0  1 -5.0625 0  1.35138038998199 0.6675097549271188 0  -0.465625 0.986328125 0  1.435958105992309 0.2563920171199723 0  1.915914614192913 -0.145782394639918 0  -0.8764440609469509 -0.5746869313612541 0  5.355194559946098 0.01566259380337612 0  -5.69333042954964 -0.5242868300459975 0  1.78125 -0.7320750794491524 0  0.7320750794491525 -3.96875 0  -0.3959075548864684 5.166422468926435 0  -4.770522389068053 -0.2123670725088856 0  -4.714160156249999 -0.69234375 0  -4.273484403713342 -0.278160994327167 0  0.9642590244517505 0.08196089404241463 0  0.3500261717645397 -4.727285205957206 0  0.6740868006020392 -4.765147848348443 0  0.6797550207247084 -1.089747806381148 0  -5.186479934354063 0.3046329157552757 0  -5.263288238215326 -0.3369092276308425 0  -2.433484016245305 0.5442571297016638 0  0.1707808983307866 -3.82363304980935 0  -0.1554012991031027 3.867535742674252 0  4.855508096805579 -0.2283975605264581 0  3.644517238097614 0.5646428152488787 0  0.05699603874439441 -0.6452791208413911 0  -0.3550018917972689 -0.5695324323732931 0  0.6
[...]
<PointData  Scalars="u"> 
<DataArray  type="Float64"  Name="u"  format="ascii">-4.6294507270280072e-01  0.0000000000000000e+00  0.0000000000000000e+00  -4.5897428731726619e-01  -9.1743822311011014e-01  -9.1743822311011014e-01  -4.5953037768390376e-01  0.0000000000000000e+00  0.0000000000000000e+00  -4.5938435645187048e-01  -9.1743822311011014e-01  -9.1743822311011014e-01  -7.0112500508611764e-01  -7.0183813412679208e-01  -7.0103516611838168e-01  -7.0150886226571207e-01  -2.1614871871493638e-01  -2.1680267881119855e-01  -2.1602959808597189e-01  -2.1680982429453119e-01  -5.9338971996671597e-01  -5.9427933399342447e-01  -3.2392392906822004e-01  -3.2396744634291769e-01  -5.9422256809906349e-01  -5.9384213069847380e-01  -8.0880758120376905e-01  -8.0943659266852619e-01  -1.0827407851543905e-01  -1.0807343307019847e-01  -3.2443756062270535e-01  -3.2438230469528356e-01  -8.0995527467174377e-01  -8.0958151482533325e-01  -1.0895320638289188e-01  -1.0796061129621187e-01  -4.5769032051820902e-01  -2.6996474345674643e-01  -3.7682245373337386e-01  -1.6206934453469166e-01  0.0000000000000000e+00  -6.4772138321789219e-01  -2.6989275069882612e-01  -9.1743822311011014e-01  -3.7653611751129384e-01  -6.4772255113403976e-01  -5.4079853168523317e-01  -5.4079604656929270e-01  -7.5559346250840020e-01  -9.1743822311011014e-01  -7.5556197495067157e-01  -1.6196843608016900e-01  0.0000000000000000e+00  -8.3649988019124233e-01  -8.1090213046394494e-02  -8.3653253476438549e-01  -8.0992658636425366e-02  -4.3598163926938971e-01  -4.8023370880905852e-01  -4.3615961923077806e-01  -4.8022154997462396e-01  -8.6344228454543459e-01  -5.3767984367154645e-02  -8.6314670368950153e-01  -5.3591494373917484e-02  -4.5541564429671511e-01  -5.5091552964730915e-02  -8.6377531890666848e-01  -8.6340041840370307e-01  -9.1743822311011014e-01  -5.3761729101170164e-02  0.0000000000000000e+00  -2.1606131891297559e-01  -2.2191413186053427e-01  -2.7006158355626503e-01  -1.6172134890116482e-01  -7.0166112434728156e-01  -7.0759820926952088e-01  -7.5552513876211425e-01  -7.5567654008781715e-01  -5.9381986978902812e-01  -5.8788135327994473e-01  -5.3911451907249519e-01  -5.3866593513196126e-01  -7.0160614869432558e-01  -7.0756950943466879e-01  -7.5553271995675730e-01  -5.9383004477960910e-01  -5.8786380671283889e-01  -7.5505307373587849e-01  -6.4805152955369538e-01  -6.4826604106984442e-01  -5.3901759092984403e-01  -3.7923990851011530e-01  -3.7892686493500077e-01  -3.2374954061562072e-01  -3.2965624690451512e-01  -1.6226528671310134e-01  -2.6977396492627187e-01  -6.4716878229210983e-01  -5.3890841492767372e-01  -6.4728654039700950e-01  -1.6229821884913637e-01  -3.2396596832833552e-01  -3.1801797616378852e-01  -2.6985267793450207e-01  -3.7964001559000460e-01  -1.6234791219457678e-01  -2.1607639187344441e-01  -2.1009612948058806e-01  -3.7919434829135118e-01  -2.6989815242924148e-01  -4.9435983386311239e-01  -4.1931177678719095e-01  -4.9783593468399784e-01  -4.1660753928176525e-01  -7.8257136153856899e-01  -7.8252264294405627e-01  -4.4859662397750272e-02  -7.8255618994807641e-01  -9.1743822311011014e-01  -4.5206103077076321e-01  -4.0507394909383759e-01  -9.1743822311011014e-01  -4.6382788866627594e-01  -1.3501027264255994e-01  -1.3496321127020322e-01  -9.1743822311011014e-01  0.0000000000000000e+00  -4.4857732062031010e-02  -1.2541078518928164e-01  -1.3509721158848473e-01  -7.8246230393918970e-01  -8.3337927674465029e-01  -8.3343892358635374e-01  -5.1273272421757798e-01  -4.0460514846314649e-01  -5.1246569805166087e-01  -8.7587762076872600e-01  -8.7429255826977925e-01  -8.9139448338200616e-02  -8.9075645802961012e-02  -1.7905522756608863e-01  -3.8606099596641782e-02  -3.8504798563746001e-02  -8.7103384995794941e-01  -8.7103928739911596e-01  0.0000000000000000e+00  -3.8074154392316889e-01  -2.5412508020457930e-01  -6.3541104038409535e-01  -6.3186601985295987e-01  -2.8572392687883452e-01  -3.7641356094840928e-01  -5.5202755997136388e-01  -6.6357042754148277e-01  -5.4610535684459405e-01  -2.5759628783550670e-01  -6.6000855015075155e-01  -2.8225411769368786e-01  0.0000000000000000e+00  -1.6854817135381289e-01  -1.7812162505113507e-01  -1.7803374132560934e-01  -7.4129073008336810e-01  -7.4115188017457334e-01  -3.6219658125982895e-01  -5.5412350163094426e-01  -7.9602478976829882e-01  -8.6058383211243733e-02  -1.2047233212980805e-01  -9.4504829808971971e-02  -8.2299888850606373e-01  -7.9706970195750515e-01  -8.3080430650195058e-01  -1.2071527465862203e-01  -2.4293843395669890e-01  -6.7128578720970811e-01  -2.9690762453850428e-01  -6.2419866943794056e-01  -6.7475542795867882e-01  -6.2067115440884546e-01  -4.5802884454712528e-01  -4.6193916525337930e-01  -4.6432292083180926e-01  -5.5034136609265627e-01  -3.6708164329610493e-01  -7.4510158110867719e-01  -7.4507292558634608e-01  -2.9651363465012381e-01  -2.4309866348945536e-01  -5.0824373293602443e-01  -4.0861746458374737e-01  -4.5244152104931157e-01  -4.6466539871419482e-01  -4.4004411256325360e-01  -4.0966551545039909e-01  -5.0704418801368367e-01  -4.6312538629811539e-01  -5.1177315796329403e-01  -3.4548550798577160e-01  -5.1837612854771786e-01  -2.7421428500242821e-02  -8.8226738998636989e-01  -2.6474155536454429e-02  -8.8405514555494302e-01  -3.3072967318974328e-02  -2.7933435416785696e-02  -3.5098936938907904e-01  -4.0729438171066662e-01  -6.7856623228559909e-01  -6.1688664984681663e-01  -2.3911323170198712e-01  -3.5119815603937765e-01  -3.0069304674643660e-01  -6.1238307434887185e-01  -6.7470979303157064e-01  -1.9424588625634356e-01  -5.2195182024499423e-02  -4.0757127915666747e-01  -3.5136556975540001e-01  -5.7345760791799105e-01  -7.2176655181318550e-01  -7.2884645454113361e-01  -3.4434385240589288e-01  -8.8991113761503626e-01  -8.8989714044523593e-01  -2.8916524869168286e-01  -2.5079477045830084e-01  -5.6613223896329423e-01  -1.8879018880124435e-01  -4.6913891862545970e-01  -8.0900905050275562e-01  -2.9143043040161565e-01  -2.4845808082353296e-01  -8.8564022302402934e-01  -6.4467928127926760e-02  -5.8156254887347925e-01  -7.1392652474795981e-01  -7.1375528383830866e-01  -8.9538074272653811e-01  -1.3480356911927258e-01  -6.3383267421853440e-01  -4.4326713939887985e-01  -4.4426411197404919e-01  -4.3525230393050240e-01  -5.2647743066672481e-01  -4.5336491226539194e-01  -3.3742534480648861e-01  -7.1513383638861761e-01  -5.8019975959736458e-01  -2.0255402632594760e-01  -2.1297423249518652e-01  -5.6765977659047717e-01  -3.3245731495468012e-01  -7.2801511262746132e-01  -7.2807907281032846e-01  -2.9549891675409545e-01  -2.4435811127843657e-01  -2.2791987076643877e-01  -5.6566655048786019e-01  -5.8166717674764590e-01  -3.5420416557220491e-01  -1.9546451563227576e-01  -6.7052711940751009e-01  -3.5269667948846889e-01  -4.7882592093673665e-01  -2.9601828311565609e-01  -6.7433694977776326e-01  -6.2105752489581567e-01  -8.1883504060675583e-01  -6.2206589967549319e-01  -6.7337173925046112e-01  -1.8550047122433966e-01  -1.8852540097317791e-01  -8.6752458314005376e-01  -1.8868478589730805e-01  -2.0581369050510329e-01  -6.2715223962238853e-01  -5.2171555361845146e-01  -5.1299998470508579e-01  -1.1230688872447432e-01  -6.8613022584583305e-01  -3.0829069382196300e-01  -6.0925163696850282e-01  -2.3158744704012121e-01  -2.7201310428650375e-02  -2.7257147217921496e-02  -4.2203949591409079e-01  -2.2130167563176856e-01  -6.9748411407981059e-01  -3.2652021101384410e-01  -3.2887378098981335e-01  -5.6348369908105678e-01  -2.5017868915815988e-01  -2.8970182096100289e-01  -3.1701328469020207e-01  -8.3725925789024314e-01  -8.4936044007869804e-01  -5.9180477577389501e-01  -7.0370394350967302e-01  -4.6941516545258533e-01  -6.8696501028692436e-01  -6.0842477771347037e-01  -1.8806978086636386e-01  -5.4311652894176769e-02  -7.2254842392860313e-02  -5.5072515083144313e-02  -8.1029895034295460e-02  -6.1638030022110740e-02  -2.6581003990276995e-02  -2.9079121416124964e-02  -4.2929527699898301e-01  -3.9593978733343688e-01  -4.9006167892538016e-01  -8.1649041768584077e-02  -5.6571022556717110e-01  -1.4856429810184726e-01  -4.5638004634556339e-01  -9.4428213098782590e-02  -3.5188391458627544e-01  -8.3613590876937427e-01  -8.5475299685460293e-01  -8.5578744942050422e-01  -2.9647356811807390e-01  -7.2918345309292676e-01  -5.6594032363891522e-01  -8.0582678605327182e-02  -5.6595403542295319e-01  -8.9113572929072982e-01  -8.9126001986900827e-01  -3.5211500008613189e-01  -6.2133995050815205e-01  -6.7415641285197725e-01  -6.7454202654342543e-01  -6.1995239568104388e-01  -6.2084540850579273e-01  -6.7554595164794018e-01  -8.1211246323860814e-02  -5.1240159127086682e-01  -4.1022555639761027e-01  -5.1244189186067224e-01  -7.2908298299137675e-01  -7.8215336321975770e-01  -1.3490822751894085e-01  -1.3471347947699266e-01  -1.3515715021041652e-01  -4.0715871854031477e-01  -7.8253690334762060e-01  -7.8231238285417759e-01  -8.3746989279707307e-01  -7.8230112530625417e-01  -2.4299710924041540e-01  -2.9709127614037356e-01  -5.6608842207265164e-01  -5.1193705650780097e-01  -2.6219603255649697e-02  -7.2903002655131854e-01  -2.4358141496313279e-01  -2.4334289879798582e-01  -8.3616309158806579e-01  -4.0381149240682201e-01  -4.8647486121171774e-01  -3.9252453759953065e-01  -3.5222631998306253e-01  -4.4220772590983842e-01  -5.5705645496277330e-02  -2.6667302519752960e-02  -3.6475024985141713e-01  -7.4204534544057943e-01  -8.4559528696966568e-01  -1.0633402414304678e-01  -1.1119018701060447e-01  -1.4924899012876028e-01  -4.2626848933304684e-01  -8.0756364293948990e-01  -8.1089428807678532e-01  -4.9040970188192079e-01  -7.0324207693796686e-02  -6.3801248274230532e-02  -3.0822160546069133e-01  -7.2955577319471843e-01  -7.3338798699148233e-01  -9.8893865218482160e-02  -2.0351892449783726e-01  -4.7256567123215820e-01  -4.6511112355716450e-01  -4.5063359050168406e-01  -4.5964803116086522e-01  -1.7876036843933740e-01  -8.2296388392938280e-01  -8.4692967369412875e-01  -8.4642825865785520e-01  -8.0783161190936226e-01  -7.6909486451563658e-01  -1.2140035760109978e-01  -1.2149615692605038e-01  -3.9294504130182711e-01  -4.2311242636037766e-01  -8.9323930394340911e-01  -5.2376683282138303e-01  -4.8726348738209435e-01  -3.8979135032934847e-01  -4.9138786019320257e-01  -5.2739765143684769e-01  -7.6674915480232531e-01  -7.6674672759862028e-01  -4.2208596318167912e-01  -5.3422059879296413e-01  -1.4301486218453432e-01  -8.0495588936305673e-01  -7.7807571871267678e-01  -8.1434206048827817e-01  -7.6899080835251299e-01  -8.0098911248904259e-01  -7.7795380480119414e-01  -4.9281527016754162e-01  -5.2474796384958855e-01  -3.9282254825885571e-01  -3.8581226700730348e-01  -7.5997604380269490e-01  -1.3943664602839856e-01  -1.5521189017015838e-01  -1.4279211608744455e-01  -1.5533265468800508e-01  -1.5801040530903970e-01  -1.1254975529485194e-01  -8.9326236396804848e-01  -7.9601446674348553e-01  -7.6904253730463434e-01  -6.3844376975808470e-02  -8.9473451521048009e-01  -3.9611521375369158e-01  -4.2276223699589677e-01  -4.4377509855127706e-01  -1.9090696173144170e-01  -4.3657643863455675e-01  -7.4206456053375691e-01  -5.5289971947976624e-01  -8.6097882747945631e-01  -8.2101495170753813e-01  -1.5726085855657448e-01  0.0000000000000000e+00  -1.1178508678826816e-01  -8.4994076453027756e-01  -1.6648936744959825e-01  -5.8672089258817850e-01  -5.5293999201434596e-01  -1.7925237953146611e-01  -7.4507823549514884e-01  -9.1743822311011014e-01  -2.2930896333199191e-01  -3.2109791865177445e-01  -4.4431934953430940e-01  -4.8840289558621930e-01  -3.6627399915232167e-01  -6.9873590043977885e-01  -5.9666539249144657e-01  -8.9313309786889905e-01  -8.9644335155596233e-01  -8.9498966490370546e-01  -1.8346236147354159e-01  -2.0464106225226594e-02  -8.5136608474284814e-01  -8.9465574549978655e-01  -7.3644193770261590e-01  -2.1478629405473026e-02  -6.1106922899998151e-01  -6.3418723604145011e-01  -6.6116539694848864e-01  -6.5073463912150442e-01  -6.4653012405302257e-01  -2.7181705178877580e-01  -2.7912824335233583e-01  -2.6799871922790991e-01  -2.6071740994426934e-01  -2.3152887600539945e-01  -3.0828455473596700e-01  -6.8614598547111505e-01  -6.1029130411560029e-01  -9.8548720636841169e-02  -1.1189500735226689e-01  -8.5915749102335526e-01  -2.1991217477004646e-01  -2.4940505909526658e-01  -2.7345993622010084e-01  -6.2632243147896582e-01  -6.6902262612739727e-01  -2.8342527725674765e-01  -5.5303932525184285e-01  -6.5055581324942346e-01  -6.8803264422321309e-01  -6.0723018716824717e-01  -4.7737786854927999e-01  -6.5049576462777947e-01  -2.7136111143250763e-01  -2.6851127716771256e-01  -6.4410560765234892e-01  -3.6506864217244966e-01  -9.1743822311011014e-01  -6.7204547786062704e-02  0.0000000000000000e+00  -1.9385786672113166e-02  -2.1889576388142543e-02  0.0000000000000000e+00  -1.6514943109690011e-01  -2.0043909978887958e-01  -8.7183835380904240e-01  -6.0162178473726613e-01  -6.9398645222728284e-01  -3.0847104024537647e-01  -8.7161271792848938e-01  -8.3246919389392882e-01  -3.0572098407894271e-01  -5.6732382620604527e-01  -1.8985481985021593e-01  -4.4844970665162864e-01  -7.6264421671435578e-01  -5.7430953205331114e-01  -2.3561012400929726e-01  -5.4268025550645060e-01  -7.6275146260155835e-01  -5.0338723429209764e-01  -4.0302295326491405e-01  -3.7546831590499402e-01  -8.5848064670909641e-01  -4.4546906794809982e-01  -5.2404059544998027e-01  -5.1749971368761261e-01  -5.0387491094878989e-01  -4.2092890961121493e-01  -5.2349538048746336e-01  -3.6406770213155282e-01  -3.5184068233569082e-01  -4.6632727180716477e-01  -4.6458708355920503e-01  -4.3980651813009086e-01  -4.3209959311828217e-01  -4.2359282265424247e-01  -3.7358450580644398e-01  -5.4605992114557800e-01  -4.3036762294167707e-01  -4.2476965996124499e-01  -4.8217218163835907e-01  -4.7561606295100683e-01  -4.6768613130791653e-01  -4.3685565447414898e-01  -4.8689207422909242e-01  -4.8363751188003479e-01  -4.5699673150228748e-01  -4.5908496901045132e-01  -4.5737637154256255e-01  -4.3397843450236273e-01  -4.5778481484537903e-01  -4.5099112304854166e-01  -4.5577647262066562e-01  -4.6168336731825366e-01  -4.6750271442799995e-01  -5.2611564921641230e-01  -4.1605954841048520e-01  -5.5025153915356828e-01  -5.6672472066497792e-01  -4.0733163238991316e-01  -3.9292338388781989e-01  -3.5242097495077862e-01  -3.4837060876420622e-01  -5.0792305269667959e-01  -3.6924933700671225e-01  -3.6570505278745635e-01  -3.6328443069642441e-01  -5.3032337896487902e-01  -5.3342643616780017e-01  -4.0938367714059926e-01  -4.4911574590138759e-01  -4.5214054421154487e-01  -4.5076908379381092e-01  -4.6115168687977054e-01  -3.7802819542142718e-01  -4.0828417423491842e-01  -4.6508838825263149e-01  -4.7018996139758740e-01  -5.5491737909931660e-01  -4.0635562027565697e-01  -5.1060450232453913e-01  -5.0036500623290825e-01  -5.0937337035903663e-01  -4.2268198245516336e-01  -5.3576406641104557e-01  -5.6004732404414770e-01  -5.5206684309244514e-01  -5.5411795736433622e-01  -5.4748050449944230e-01  -5.6769295261106067e-01  -5.7404609041520793e-01  -4.7340160822026978e-01  -4.7166437863914223e-01  -5.5312758550697472e-01  -5.0760212097808322e-01  -3.9752033244271462e-01  -4.3900223217326739e-01  -4.5936681033008475e-01  -4.5635207629379632e-01  -4.7444740833587923e-01  -4.7841539710927139e-01  -4.6691813895712059e-01  -4.2004402477858105e-01  -4.0887912104610230e-01  -3.9376429261651441e-01  -5.1841577671999406e-01  -5.3342049049308249e-01  -4.7306001316291441e-01  -4.5906277926018529e-01  -5.0339869656972891e-01  -3.8808154734638411e-01  -3.8027826065651860e-01  -3.6560145313641895e-01  -3.9143616088139677e-01  -3.6049080454349358e-01  -3.4929537657043830e-01  -4.5505285695625081e-01  -4.7518842137632955e-01  -4.8069065077439110e-01  -4.2126050547825827e-01  -4.1139013179028072e-01  -4.3519781694992893e-01  -4.6538205772852803e-01  -4.5133317520115840e-01  -3.8960346481480967e-01  -4.9220835462760326e-01  -5.0150524076953507e-01  -4.4603395368446880e-01  -4.1376499167672687e-01  -4.9337228468904776e-01  -5.4559540029919806e-01  -5.6908617054469479e-01  -5.5384838075631138e-01  -5.3150705098042106e-01  -4.4418605631087249e-01  -4.2119202829680386e-01  -4.9901402104101383e-01  -5.2485691207349827e-01  -4.2570645205220625e-01  -5.2881402326509508e-01  -5.1538562138417221e-01  -3.5314274357101771e-01  -3.4034135168596164e-01  -3.7169795214600848e-01  -4.3351286099125458e-01  -3.7861563509305080e-01  -3.7963459623601747e-01  -3.8576440580784854e-01  -3.9277683086996040e-01  -4.2313782445352349e-01  -5.0002151241167248e-01  -4.5679502224437218e-01  -4.9863804363732139e-01  -5.2199568959646814e-01  -5.0235456178322058e-01  -3.7307787917722179e-01  -3.9733796305306252e-01  -3.8759519675289428e-01  -4.2257337984767229e-01  -4.4152609714543190e-01  -4.4853501902916759e-01  -5.3905691287645796e-01  -5.3990786048960693e-01  -4.5447819765054476e-01  -4.5943627659774677e-01  -4.9822237025988070e-01  -3.8456951344010565e-01  -4.5278148512449090e-01  -4.4609240092444180e-01  -5.5896773298056868e-01  -5.3131738798029682e-01  -5.3351078094828985e-01  -4.9089619234274701e-01  -4.9290276983541820e-01  -4.0769305844384801e-01  -3.8843517923515497e-01  -3.8631561873902409e-01  -4.4792010725458631e-01  -4.4289190591736921e-01  -4.5110517163454722e-01  -4.5811621671392599e-01  -4.5868013591695472e-01  -4.6997026605425168e-01  -4.7432669197424943e-01  -4.4288141363552680e-01  -4.4562980766101390e-01  -4.3705984100599293e-01  -4.3014700476114104e-01  -4.3013520143703060e-01  -4.2609468335210909e-01  -4.1981700714808284e-01  -4.3403540922916878e-01  -4.3833648122114299e-01  -4.8603868425443481e-01  -4.6161126212649750e-01  -4.7057872321567928e-01  -4.7337673949890857e-01  -4.6892441266167179e-01  -4.7349712933308902e-01  -4.4624668714156901e-01  -4.2960746434230401e-01  -4.8394095385897679e-01  -4.8042261659567209e-01  -4.4783326479603625e-01  -4.5379216989205562e-01  -4.5110659908214057e-01  -4.5823656391149670e-01  -4.6545050866192539e-01  -4.6433255716376876e-01  -4.5660508097565122e-01  -4.5539466535319223e-01  -4.6005316427311771e-01  -4.3938772925461023e-01  -4.6272608772591339e-01  -4.5382437671663955e-01  -4.5998020493665204e-01  -4.6158950162927942e-01  -4.6622590660090474e-01  -4.5898066631326567e-01  -4.5819977901351872e-01  -4.4974711009632845e-01  -4.5608863023621299e-01  -4.5085751771724220e-01  -4.4739115818803749e-01  -4.5518000176361140e-01  -4.5256297088720610e-01  -4.4821330172186025e-01  -4.5228176161266326e-01  -4.5230864327033382e-01  -4.6753474982583609e-01  -4.6187851037711947e-01  -4.6873326423692374e-01  -4.6144080522409070e-01  -4.7245998727402783e-01  -4.7659111799511011e-01  -4.8033195260750072e-01  -4.7352978393968392e-01  -4.6689518634549615e-01  -4.3068493959088150e-01  -4.4111559009976642e-01  -4.4370940463191155e-01  -4.5736258217964670e-01  -4.5776018156709630e-01  -4.6101464288724597e-01  -4.5819952545397064e-01  -4.5633619742994219e-01  -4.8544424613896237e-01  -4.7067959331179354e-01  -4.8337363565403701e-01  -4.7420423277512852e-01  -4.6592927377096455e-01  -4.5764575681474251e-01  -4.8551670857929735e-01  -4.7639089191681422e-01  -4.7944554202924877e-01  -4.3067746896323283e-01  -4.3978843101879422e-01  -4.4099447829578964e-01  -4.3292644749539827e-01  -4.5898535886553726e-01  -4.4668017047137581e-01  -4.3992606919494842e-01  -4.4436093220684386e-01  -4.3103992170740224e-01  -4.2440766266933194e-01  -4.5557020756077249e-01  -4.5326336474957718e-01  -4.5779215674462836e-01  -4.5554193971924511e-01  -4.6237930651765990e-01  -4.5851544583964782e-01  -4.4882710997562586e-01  -4.5005536230782556e-01  -4.8647846320784632e-01  -4.8633908967290385e-01  </DataArray> 
</PointData> 
</Piece>
</UnstructuredGrid>
</VTKFile>