<?xml version="1.0"?>
<VTKFile type="UnstructuredGrid"  version="0.1"  >
<UnstructuredGrid>
<Piece  NumberOfPoints="778" NumberOfCells="1401">
<Points>
<DataArray  type="Float64"  NumberOfComponents="3"  format="ascii">1 -1 0  6 -1 0  6 1 0  1 1 0  1 6 0  -1 6 0  -1 1 0  -6 1 0  -6 -1 0  -1 -1 0  -1 -6 0  1 -6 0  1 3.5 0  -1 3.5 0  -1 -3.5 0  1 -3.5 0  3.5 -1 0  3.5 1 0  -3.5 -1 0  -3.5 1 0  -1 -2.25 0  1 -2.25 0  2.25 -1 0  2.25 1 0  -1 2.25 0  1 2.25 0  -1 4.75 0  1 4.75 0  -4.75 -1 0  -4.75 1 0  -2.25 1 0  -2.25 -1 0  1 -4.75 0  -1 -4.75 0  4.75 1 0  4.75 -1 0  0 0 0  -2.875 0 0  -1.625 0 0  -4.125 0 0  -6 0 0  0 2.875 0  2.875 0 0  0 6 0  1.625 0 0  0 -2.875 0  0 -1.625 0  0 1.625 0  0 4.125 0  0 -6 0  0 -4.125 0  4.125 0 0  6 0 0  -0.109375 5.0625 0  -5.0625 -0.109375 0  -0.109375 -5.0625 0  5.0625 0.109375 0  0.8125 -0.1875 0  -0.1875 -0.8125 0  -0.8125 0.1875 0  -0.1875 0.8125 0  1 5.375 0  -5.375 1 0  1 -5.375 0  5.375 -1 0  0.53515625 0.46484375 0  -5.375 -1 0  -1 5.375 0  -1 -5.375 0  -0.5 -6 0  5.375 1 0  6 0.5 0  3.5 0.3046875 0  3.43125 -0.34765625 0  2.875 -1 0  4.125 1 0  0.3046875 3.5 0  -0.34765625 3.56875 0  -1 4.125 0  1 4.125 0  -0.3046875 2.25 0  0.34765625 2.18125 0  1 1.625 0  -1 -1.625 0  -0.3046875 -3.5 0  0.34765625 -3.56875 0  1 -4.125 0  0.3046875 -2.25 0  -0.34765625 -2.18125 0  -1 -4.125 0  -1 -2.875 0  1 -2.875 0  1 -1.625 0  1.625 -1 0  1.625 1 0  2.25 0.3046875 0  2.18125 -0.34765625 0  4.125 -1 0  2.875 1 0  1 2.875 0  -1 1.625 0  -1 2.875 0  -4.125 -1 0  -2.25 0.3046875 0  -2.31875 -0.34765625 0  -2.875 -1 0  -1.625 1 0  -4.125 1 0  -3.5 0.3046875 0  -3.56875 -0.34765625 0  -1.625 -1 0  -2.875 1 0  0.380626321794301 1.06853329530276 0  -1.110819327731092 -0.3739495798319328 0  0.3739495798319328 -1.110819327731092 0  1.151210293219304 0.3991939332620648 0  -0.5 -4.4375 0  0.5 -4.4375 0  5.481553398058253 -0.3712833737864077 0  0.5 4.4375 0  0.5 6 0  -0.522503783594538 -0.3265648647465863 0  -1.3125 0.5 0  -0.5 6 0  0.3265648647465863 -0.522503783594538 0  4.4375 0.5 0  4.4375 -0.5 0  0.5 -6 0  -6 -0.5 0  -5.481553398058253 0.3712833737864077 0  -4.55 -0.4296875 0  -4.4375 0.5 0  -0.5 4.4375 0  0.4792930825242718 5.026881067961165 0  0.4792930825242718 -5.026881067961165 0  -0.5 1.3125 0  1.3125 -0.5 0  -0.5 -1.3125 0  0.25 5.518539952962044 0  0.2125133872612723 -5.500076563152851 0  4.969341874373811 -0.5152550785163683 0  -4.969341874373811 0.5152550785163683 0  3.927189744345589 -0.4712876597840069 0  -5.554036458333333 -0.25 0  5.554036458333333 0.25 0  -0.4690710616438356 -5.462756849315069 0  -0.4690710616438356 5.462756849315069 0  -6 0.5 0  -1.59556436210848 -0.5 0  -3.058421751829955 -0.5 0  -0.5 2.731982421875 0  0.5 2.691578248170045 0  2.691578248170045 -0.5 0  1.641211254104555 0.5 0  0.5 -1.768017578125 0  0.5 -3.058421751829955 0  0.5 1.699267578125 0  3.018017578125 0.5 0  -0.5 -3.018017578125 0  -2.731982421875 0.5 0  6 -0.5 0  -4.050017120925308 -0.5006099332648871 0  -3.940668202764977 0.5371363767281105 0  3.940668202764977 0.5371363767281105 0  0.4517449476047904 3.958458083832335 0  -0.4517449476047904 -3.958458083832335 0  -1.809331797235023 0.5371363767281105 0  -0.4517449476047904 1.791541916167665 0  -0.0546875 4.59375 0  -5.006445312499999 -0.58984375 0  4.605643203883496 -0.04725424757281554 0  4.90625 0.5546875 0  -0.5546875 4.90625 0  0.04725424757281554 -4.605643203883496 0  -0.586116118210531 -4.995821561900013 0  -4.603710222472543 0.04846236095466061 0  -3.1875 0.65234375 0  0.6163907621110913 3.147502300973589 0  2.5625 0.65234375 0  0.6163907621110913 -2.602497699026411 0  -0.637456713551384 3.189259902731882 0  -0.637456713551384 -2.560740097268118 0  -0.34765625 0.34765625 0  -0.639453125 0.708203125 0  0.089630126953125 0.437286376953125 0  -0.4238281249999999 -1.746875 0  1.746875 -0.4238281249999999 0  -0.4238281249999999 4.003125 0  0.4238281249999999 -4.003125 0  -2.5625 -1 0  3.1875 -1 0  -0.09375 -1.21875 0  1.21875 -0.09375 0  0.4020305405760241 -0.1120343241705621 0  -0.6280191027904287 -0.7577505545748082 0  0.90625 -0.59375 0  -1.205500904741459 0.03633725387965409 0  -0.02129048848213058 1.202028574265107 0  -0.1120343241705621 -0.4020305405760241 0  1 1.3125 0  -2.003587563743074 -0.6442361556699288 0  0.6640077663259718 -1.395873598614549 0  5.6875 -1 0  0.6308138580859101 -5.592151086468728 0  -5.6875 -1 0  0.6568032075915271 5.612942566073222 0  5.616530031741774 0.6612875396772174 0  -5.6875 1 0  1.9375 1 0  -1.3125 -1 0  0.1524679547155687 -3.232579139388032 0  0.1524679547155687 2.517420860611968 0  -3.232579139388032 -0.1524679547155687 0  -1.932320553757026 -0.252759244693845 0  2.517420860611968 -0.1524679547155687 0  -0.04776045819569434 -2.464949198504599 0  -0.2420369079104247 3.187693796852321 0  3.751304711039982 -0.1203080877045035 0  -5.397601941771943 -0.609026059866711 0  1.3125 1 0  1.9375 -1 0  -0.6946315101963667 -2.018229242739021 0  -0.6946315101963667 3.731770757260979 0  1 -3.8125 0  2.014364435550335 0.6166648446293641 0  -1 5.6875 0  -1 -5.6875 0  -2.653476149871182 -0.5942957192996303 0  3.096523850128818 -0.5942957192996303 0  1 1.9375 0  -3.8125 -1 0  0.586975531244212 -0.7975955463807081 0  -0.2946248980953088 -4.743710873809568 0  2.625453376770019 0.2814788818359375 0  -3.124546623229981 0.2814788818359375 0  -0.1204856417894853 5.631800603217465 0  5.253862011026742 0.6581468962876398 0  -0.65234375 2.108701557941197 0  0.65234375 3.641298442058803 0  -0.65234375 -3.641298442058803 0  -0.25 -5.744880569758637 0  -4.4375 -1 0  -0.3166212631734941 -2.713595940002554 0  0.6591479224207506 0.1324305912687024 0  0.8660781906552419 0.6468634238104103 0  -0.9887189158197679 0.6452930723873549 0  0.3149351927204296 -1.460971774996065 0  -0.3572852727880474 -0.009629022788047503 0  2.09375 -0.6866724363772454 0  0.6866724363772454 -3.65625 0  0.6866724363772454 2.09375 0  -3.65625 -0.6866724363772454 0  -3.5371337890625 0.65234375 0  -0.1389584113023952 1.944025352615082 0  -2.151744288472698 0.65234375 0  -0.1389584113023951 -3.805974647384918 0  0.1389584113023951 3.805974647384918 0  -2.578772109813904 0.1857224367977529 0  3.171227890186096 0.1857224367977529 0  3.360315647536819 0.65234375 0  0.1857224367977528 -1.921227890186096 0  0.65234375 -2.110315647536819 0  1.894016528727564 0.2415406141485869 0  -3.738232421875 0 0  0.2516875549238616 3.139069895099618 0  -1.913724396854074 0.2011142179916434 0  0.1669456568161915 0.7843410671359501 0  -2.5625 1 0  -1 -3.1875 0  -1 2.5625 0  0.1736601499778735 4.857955663330752 0  -0.1893536587212888 2.577300639071919 0  -0.1893536587212888 -3.172699360928081 0  3.852271904453858 0.206603749322895 0  -3.8125 1 0  -0.1250095034621793 -5.421707592768541 0  3.8125 -1 0  3.617304217264373 -0.6578427703661498 0  0.2630176195580202 -2.636558318495885 0  0.2674330357770522 1.399517071108871 0  0.631726413079416 1.339254523727593 0  4.700571879807737 0.2813704945051134 0  0.7143844363649634 -3.319538455208831 0  2.430461544791169 -0.7143844363649634 0  0.7143844363649634 2.430461544791169 0  -3.319538455208831 -0.7143844363649634 0  5.687045771608623 -0.6520598572553891 0  -5.687045771608623 0.6520598572553891 0  -1.15625 -0.7048248829733235 0  3.438284572973296 -0.01860298867862281 0  -0.03021088078697859 3.451572359862192 0  2.216682837011589 -0.02159585961918548 0  -2.191580885932936 -0.03126387444658879 0  0.1857410764408683 1.895679405349457 0  3.103473238297955 -0.253270943723272 0  -2.646526761702045 -0.253270943723272 0  -2.333137350671861 -0.6791984914172315 0  -1 5.0625 0  -0.6971235589909319 5.213002544375844 0  0.01618705363819947 2.225929180591695 0  0.01618705363819947 -3.524070819408305 0  0.5690054882403073 0.7951310720450595 0  -0.5764940424412852 -3.329579265180942 0  -0.5764940424412852 2.420420734819058 0  3.8125 1 0  -5.372163860234628 0.04365139563106807 0  5.164108319316826 -0.225040894204947 0  -5.361952437854323 0.6744012088984681 0  -5.0625 1 0  5.286835586913878 -0.6616705837083201 0  -5.692815197359722 0.1186699900166531 0  5.663425996156958 -0.07763197815533956 0  -0.9219866027132193 -0.1143045829323572 0  -1.394333629759332 -0.2233077430199216 0  0.09322478991596644 -0.9616596638655462 0  5.0625 -1 0  -0.14412109375 -1.92169189453125 0  -4.28125 -0.7212148987671345 0  0.2649796277366407 0.1735162902120744 0  -4.907855692236596 0.1868230509619793 0  -1.9375 1 0  1 5.0625 0  0.6915124486819284 -5.272938212550202 0  0.683483242673902 5.284948082526911 0  2.5625 -1 0  -1 -3.8125 0  -1 1.9375 0  5.0625 1 0  -1 -1.9375 0  1 5.6875 0  1 -5.6875 0  -1.9375 -1 0  -1 -2.5625 0  -1 3.1875 0  1 -3.1875 0  1 -2.5625 0  1 2.5625 0  1 3.1875 0  -5.0625 -1 0  -1 -1.3125 0  1.3125 -1 0  -1 1.3125 0  -1 3.8125 0  -1 4.4375 0  -4.4375 1 0  4.4375 -1 0  4.4375 1 0  -1.3125 1 0  1 4.4375 0  1 -4.4375 0  -1 -5.0625 0  -1 -4.4375 0  -3.1875 1 0  2.5625 1 0  1 -1.9375 0  1 -1.3125 0  5.6875 1 0  1 3.8125 0  3.1875 1 0  -3.1875 -1 0  1 -5.0625 0  1.35138038998199 0.6675097549271188 0  -0.465625 0.986328125 0  1.435958105992309 0.2563920171199723 0  1.915914614192913 -0.145782394639918 0  -0.8764440609469509 -0.5746869313612541 0  5.355194559946098 0.01566259380337612 0  -5.69333042954964 -0.5242868300459975 0  1.78125 -0.7320750794491524 0  0.7320750794491525 -3.96875 0  -0.3959075548864684 5.166422468926435 0  -4.770522389068053 -0.2123670725088856 0  -4.714160156249999 -0.69234375 0  -4.273484403713342 -0.278160994327167 0  0.9642590244517505 0.08196089404241463 0  0.3500261717645397 -4.727285205957206 0  0.6740868006020392 -4.765147848348443 0  0.6797550207247084 -1.089747806381148 0  -5.186479934354063 0.3046329157552757 0  -5.263288238215326 -0.3369092276308425 0  -2.433484016245305 0.5442571297016638 0  0.1707808983307866 -3.82363304980935 0  -0.1554012991031027 3.867535742674252 0  4.855508096805579 -0.2283975605264581 0  3.644517238097614 0.5646428152488787 0  0.05699603874439441 -0.6452791208413911 0  -0.3550018917972689 -0.5695324323732931 0  0.6
[...]
<PointData  Scalars="u"> 
<DataArray  type="Float64"  Name="u"  format="ascii">-4.1997399304395105e-01  0.0000000000000000e+00  0.0000000000000000e+00  -4.1783118766106764e-01  -8.3602622110858205e-01  -8.3602622110858205e-01  -4.1811277178738249e-01  0.0000000000000000e+00  0.0000000000000000e+00  -4.1807447939835107e-01  -8.3602622110858205e-01  -8.3602622110858205e-01  -6.3779740405039975e-01  -6.3864346388446236e-01  -6.3769326029133822e-01  -6.3816401230100517e-01  -1.9829068241489770e-01  -1.9852813447060516e-01  -1.9792897222910794e-01  -1.9841990978521873e-01  -5.3897994315057507e-01  -5.4002322450998974e-01  -2.9670995588049287e-01  -2.9686537713150629e-01  -5.4005843795253439e-01  -5.3956923414102853e-01  -7.3635550596729238e-01  -7.3703122516910613e-01  -9.9012566956387937e-02  -9.8966396829895054e-02  -2.9740485437646885e-01  -2.9704407456112303e-01  -7.3754217971284164e-01  -7.3698640070890120e-01  -1.0002915834164675e-01  -9.9010565473265602e-02  -4.1802911955204586e-01  -2.4731211428624447e-01  -3.4497853619690733e-01  -1.4846863776165192e-01  0.0000000000000000e+00  -5.8899140228405966e-01  -2.4730114363100342e-01  -8.3602622110858205e-01  -3.4472943730090982e-01  -5.8896572526227664e-01  -4.9148541685029540e-01  -4.9151520863540610e-01  -6.8778054006184974e-01  -8.3602622110858205e-01  -6.8769777970601720e-01  -1.4844344632078893e-01  0.0000000000000000e+00  -7.6186838143623292e-01  -7.4292880315341925e-02  -7.6190361549637797e-01  -7.4227842055224105e-02  -3.9851621149110716e-01  -4.3765384477910302e-01  -3.9867485865379870e-01  -4.3765311709816512e-01  -7.8649672863260611e-01  -4.9524232858047273e-02  -7.8621757975083584e-01  -4.9178464857139483e-02  -4.1577517646395440e-01  -5.0440743418530123e-02  -7.8690676294392492e-01  -7.8649770989971923e-01  -8.3602622110858205e-01  -4.9131963373282017e-02  0.0000000000000000e+00  -1.9800898223464608e-01  -2.0335817993671848e-01  -2.4727690068864253e-01  -1.4824373503231020e-01  -6.3841234297827898e-01  -6.4383577838978945e-01  -6.8772314904759990e-01  -6.8791678313244820e-01  -5.3966946600508869e-01  -5.3423148847141955e-01  -4.8896749957818908e-01  -4.8878908271046029e-01  -6.3829857941714696e-01  -6.4376396431924932e-01  -6.8772749425660051e-01  -5.3963352427642841e-01  -5.3416378095015415e-01  -6.8727170893159872e-01  -5.8940336925997605e-01  -5.8953166758351627e-01  -4.8893586591062577e-01  -3.4777741385657429e-01  -3.4743989573891437e-01  -2.9660121271143008e-01  -3.0199186436120906e-01  -1.4873773612377747e-01  -2.4736056886864916e-01  -5.8836913767219012e-01  -4.8873658650834817e-01  -5.8845204340847679e-01  -1.4866274804559426e-01  -2.9677337995325398e-01  -2.9133516358319483e-01  -2.4731737013611632e-01  -3.4792086461454907e-01  -1.4846248691763816e-01  -1.9792992275695490e-01  -1.9245707656420158e-01  -3.4773516107800839e-01  -2.4737358034885368e-01  -4.4989919240868448e-01  -3.8350894002583374e-01  -4.5293935537715302e-01  -3.8107185739801680e-01  -7.1241719687770444e-01  -7.1238442100935373e-01  -4.1109322357838304e-02  -7.1247142701256361e-01  -8.3602622110858205e-01  -4.1290279417006448e-01  -3.7077742205236819e-01  -8.3602622110858205e-01  -4.2328934222460013e-01  -1.2376173896706877e-01  -1.2369315857827037e-01  -8.3602622110858205e-01  0.0000000000000000e+00  -4.1111847773831575e-02  -1.1487135872706816e-01  -1.2372938002280204e-01  -7.1234063533553493e-01  -7.5899299145948773e-01  -7.5905066999144355e-01  -4.6583620740414966e-01  -3.7030419018868505e-01  -4.6557216689881487e-01  -7.9793697930458429e-01  -7.9648254870405844e-01  -8.1730604953739239e-02  -8.1618749873434260e-02  -1.6410372010318663e-01  -3.5375246695281977e-02  -3.5260310084286837e-02  -7.9350324349991674e-01  -7.9350967936878447e-01  0.0000000000000000e+00  -3.4867980015895778e-01  -2.3279447187229682e-01  -5.7771338559208807e-01  -5.7443442785409982e-01  -2.6178687081872221e-01  -3.4476298957526141e-01  -5.0138847520867047e-01  -6.0349162764023156e-01  -4.9602461840462270e-01  -2.3608401838603735e-01  -6.0018690474194758e-01  -2.5856260200479392e-01  0.0000000000000000e+00  -1.5440572260326871e-01  -1.6310422390535487e-01  -1.6309382372696049e-01  -6.7469845892882174e-01  -6.7448343213404993e-01  -3.3183724990907676e-01  -5.0340151827904434e-01  -7.2478850267285388e-01  -7.8781201581092891e-02  -1.1042301315332710e-01  -8.6608358645502884e-02  -7.4945628403006559e-01  -7.2572473733243448e-01  -7.5665943079314968e-01  -1.1059639535621017e-01  -2.2259457144057812e-01  -6.1056721719173945e-01  -2.7208406116294165e-01  -5.6736966417515866e-01  -6.1368132648411577e-01  -5.6417280507988510e-01  -4.1824071536588936e-01  -4.2134201004051131e-01  -4.2379956751980996e-01  -4.9988949793040099e-01  -3.3620065733449056e-01  -6.7817187071323415e-01  -6.7810347637263468e-01  -2.7158061340449391e-01  -2.2279390802722226e-01  -4.6231222867506128e-01  -3.7383412552407674e-01  -4.1330792569643482e-01  -4.2374634372748171e-01  -4.0188499515250931e-01  -3.7475829583006182e-01  -4.6132750107151455e-01  -4.2275755803428872e-01  -4.6209395453974234e-01  -3.1656778169338279e-01  -4.7071659633222629e-01  -2.4794560605685891e-02  -8.0380542051266701e-01  -2.4204286883747716e-02  -8.0546063412019098e-01  -3.0235033629082860e-02  -2.5472751905323315e-02  -3.2184386787181940e-01  -3.7410424860310593e-01  -6.1720999094123474e-01  -5.6077065779136170e-01  -2.1904546845191550e-01  -3.2166872506769068e-01  -2.7548402285603513e-01  -5.5661777443805793e-01  -6.1369157318944356e-01  -1.7803011725764917e-01  -4.7820426493031580e-02  -3.7427612609012312e-01  -3.2211251158416954e-01  -5.2076964254199032e-01  -6.5685177119917981e-01  -6.6328984096966226e-01  -3.1548667683377973e-01  -8.1089523236763461e-01  -8.1082942360747512e-01  -2.6489059211479532e-01  -2.2978393156958607e-01  -5.1397900097188298e-01  -1.7286848362698051e-01  -4.2761035631621458e-01  -7.3667086591750452e-01  -2.6701900693406005e-01  -2.2759329871639253e-01  -8.0687941553772613e-01  -5.9033873815002622e-02  -5.2834681072764977e-01  -6.4961820786163782e-01  -6.4941996249409994e-01  -8.1580359036489092e-01  -1.2351224063705940e-01  -5.7623347034698269e-01  -4.0505495308052619e-01  -4.0605600693994931e-01  -3.9779327771575818e-01  -4.7845889453912821e-01  -4.1415524238666929e-01  -3.0914858857710414e-01  -6.5068557579194386e-01  -5.2707294543988792e-01  -1.8553191091478388e-01  -1.9507724258633197e-01  -5.1584614475147650e-01  -3.0469553526490523e-01  -6.6247849144286741e-01  -6.6259951102132897e-01  -2.7072121678103855e-01  -2.2394656348323880e-01  -2.0898361292616818e-01  -5.1397989239450692e-01  -5.2840169955259497e-01  -3.2441635168922511e-01  -1.7906494051962446e-01  -6.0987953638039127e-01  -3.2305140788438730e-01  -4.3642837848013277e-01  -2.7101386678708489e-01  -6.1341389778234201e-01  -5.6445029569609595e-01  -7.4567886804692707e-01  -5.6549636707872641e-01  -6.1245451189254030e-01  -1.7003448844550154e-01  -1.7264706156208706e-01  -7.9029903166018289e-01  -1.7290418274002381e-01  -1.8861671961284882e-01  -5.7012395978345498e-01  -4.7422882950627265e-01  -4.6610929541239288e-01  -1.0291750704672752e-01  -6.2408923039153519e-01  -2.8243133139405641e-01  -5.5376157461422171e-01  -2.1217081195072526e-01  -2.4899789283327627e-02  -2.4968871394563733e-02  -3.8616711301218021e-01  -2.0281800469064651e-01  -6.3457354297997404e-01  -2.9910734188415911e-01  -3.0125099190157983e-01  -5.1202469151387797e-01  -2.2924891192931640e-01  -2.6539443881541852e-01  -2.9041435396669535e-01  -7.6257410199322961e-01  -7.7374730999891728e-01  -5.3785874739641937e-01  -6.4022121400877197e-01  -4.2801761100882479e-01  -6.2483755371409866e-01  -5.5301926638865195e-01  -1.7230241348417094e-01  -4.9760692444712783e-02  -6.6230302969155747e-02  -5.0502836945396583e-02  -7.4325834401064744e-02  -5.6518585953978517e-02  -2.4372625574741288e-02  -2.6658650545351353e-02  -3.9250105881818281e-01  -3.6235200155358716e-01  -4.4629651400048970e-01  -7.4941468414395890e-02  -5.1402258762586128e-01  -1.3610716918077864e-01  -4.1683669038139864e-01  -8.6510235699337606e-02  -3.2292687908310952e-01  -7.6140209349859811e-01  -7.7853256331431087e-01  -7.7950098228705667e-01  -2.7157078143872831e-01  -6.6335959657276100e-01  -5.1390527831313171e-01  -7.3808373071111461e-02  -5.1360001865960159e-01  -8.1211482901961451e-01  -8.1220679220461933e-01  -3.2290113652688945e-01  -5.6469289649983201e-01  -6.1311147972180269e-01  -6.1342696684654163e-01  -5.6339330526461429e-01  -5.6444273385828225e-01  -6.1452258534787041e-01  -7.4309474729314762e-02  -4.6261639159439832e-01  -3.7599767096625342e-01  -4.6241684606149436e-01  -6.6350677252580859e-01  -7.1200449098684826e-01  -1.2369990571468835e-01  -1.2338290642364233e-01  -1.2393262630115998e-01  -3.7394486304708396e-01  -7.1246285483981386e-01  -7.1212764301206355e-01  -7.6289755285662764e-01  -7.1221818392330105e-01  -2.2269316101336972e-01  -2.7235958954244732e-01  -5.1387778057606670e-01  -4.6250929627061643e-01  -2.3816792084952205e-02  -6.6354919519890010e-01  -2.2340667799721853e-01  -2.2300623253240931e-01  -7.6151162991611498e-01  -3.6960337791387887e-01  -4.4287152263273055e-01  -3.5928846418574378e-01  -3.2259031243458502e-01  -4.0384779453387881e-01  -5.1043030881540302e-02  -2.4383059651508689e-02  -3.3422906200441355e-01  -6.7535641440076932e-01  -7.7017576928648257e-01  -9.7416558043825124e-02  -1.0187983986451096e-01  -1.3672993187982480e-01  -3.8975539866799030e-01  -7.3534634663734855e-01  -7.3839667558317990e-01  -4.4540712025304441e-01  -6.4420683127450015e-02  -5.8420206257944855e-02  -2.8236148219633395e-01  -6.6389585071065260e-01  -6.6745384202274138e-01  -9.0662387943604636e-02  -1.8653093192364348e-01  -4.3099599642041037e-01  -4.2439149532327619e-01  -4.1156140633361132e-01  -4.1972872265439215e-01  -1.6375961196653019e-01  -7.4941703355447764e-01  -7.7140741408170543e-01  -7.7095025759345559e-01  -7.3560076396590102e-01  -7.0015859562627769e-01  -1.1136915536540422e-01  -1.1133535687800407e-01  -3.6001231385518234e-01  -3.8687226849675593e-01  -8.1379374142196370e-01  -4.7612094231482183e-01  -4.4268051469797753e-01  -3.5679945625059439e-01  -4.4726936903544684e-01  -4.7930946489505621e-01  -6.9794964479718258e-01  -6.9798099892327636e-01  -3.8601944171386326e-01  -4.8476318316116535e-01  -1.3100865812554066e-01  -7.3292939243462019e-01  -7.0831365335883889e-01  -7.4157517283454255e-01  -7.0000277087495089e-01  -7.2927854662771008e-01  -7.0825581030105922e-01  -4.4693396316985567e-01  -4.7613643219085489e-01  -3.5955085779084422e-01  -3.5362661607721313e-01  -6.9167021291495967e-01  -1.2780676730806054e-01  -1.4221350928556914e-01  -1.3086531178300853e-01  -1.4225862139599935e-01  -1.4481926570855461e-01  -1.0310863833648135e-01  -8.1382249729434686e-01  -7.2477773183431415e-01  -7.0002393286619291e-01  -5.8499049726516476e-02  -8.1520088795107915e-01  -3.6277596067725842e-01  -3.8700035720858672e-01  -4.0554112452201707e-01  -1.7490716125201658e-01  -3.9898231159527608e-01  -6.7547525742923764e-01  -5.0201056913722863e-01  -7.8430161647941188e-01  -7.4766994751911431e-01  -1.4414732746033562e-01  0.0000000000000000e+00  -1.0242272003103950e-01  -7.7427529713628829e-01  -1.5252582747711552e-01  -5.3317649583646087e-01  -5.0196418789785491e-01  -1.6420909178068083e-01  -6.7819359271203372e-01  -8.3602622110858205e-01  -2.1020170443056996e-01  -2.9422968880454980e-01  -4.0581655177386283e-01  -4.4365376468333600e-01  -3.3562674253421948e-01  -6.3572075307444720e-01  -5.4207739075600569e-01  -8.1375018832471135e-01  -8.1679083870566438e-01  -8.1544208135278562e-01  -1.6817506992702647e-01  -1.8772513961977527e-02  -7.7546544704902631e-01  -8.1514650264099631e-01  -6.7019335900769217e-01  -1.9701590512554767e-02  -5.5541493676517939e-01  -5.7655643120882216e-01  -6.0133101954212320e-01  -5.9171150784414239e-01  -5.8790124715519076e-01  -2.4904557274265043e-01  -2.5574392899669152e-01  -2.4552881658039291e-01  -2.3884258844156853e-01  -2.1209204311417412e-01  -2.8244283427096845e-01  -6.2415088231518467e-01  -5.5471161498845156e-01  -9.0410368931824386e-02  -1.0257160319027091e-01  -7.8262347140641242e-01  -2.0145540978150031e-01  -2.2864254213555305e-01  -2.5060813319132741e-01  -5.6940320460405225e-01  -6.0845558754568851e-01  -2.5966905935858120e-01  -5.0199638761975740e-01  -5.9159633235932996e-01  -6.2597378403715942e-01  -5.5189295215088263e-01  -4.3507163880823169e-01  -5.9145829413129591e-01  -2.4858976254747342e-01  -2.4604025337937627e-01  -5.8571151399792909e-01  -3.3462769838995332e-01  -8.3602622110858205e-01  -6.1719072800644439e-02  0.0000000000000000e+00  -1.7772436977270385e-02  -2.0038432581273524e-02  0.0000000000000000e+00  -1.5136253016825610e-01  -1.8372704312878688e-01  -7.9420328414895958e-01  -5.4672250866023164e-01  -6.3134512736195647e-01  -2.8260771403142482e-01  -7.9403178074526226e-01  -7.5818886781815598e-01  -2.8006402073617659e-01  -5.1541786203160789e-01  -1.7392066001441739e-01  -4.0971895682449139e-01  -6.9417387818267273e-01  -5.2175603964266315e-01  -2.1590468920066835e-01  -4.9312134905575394e-01  -6.9435438884460943e-01  -4.5789299489417856e-01  -3.6890159948772477e-01  -3.4379695624481027e-01  -7.8199942335630002e-01  -4.0704949262038520e-01  -4.7645150537894282e-01  -4.7057950842816298e-01  -4.5847675055212028e-01  -3.8488335974563020e-01  -4.7595964297923499e-01  -3.3338888070143596e-01  -3.2223243771987570e-01  -4.2534960441457575e-01  -4.2272920309962486e-01  -4.0197086396402548e-01  -3.9503383248422502e-01  -3.8740475647765688e-01  -3.4207214305985234e-01  -4.9615063640074464e-01  -3.9315309780093843e-01  -3.8852401417909049e-01  -4.3922106393016114e-01  -4.3347219599017223e-01  -4.2660517289528804e-01  -3.9934360598830726e-01  -4.4331341465580909e-01  -4.4044049850909350e-01  -4.1711543254406147e-01  -4.1915182065484113e-01  -4.1770811403890101e-01  -3.9661916865040603e-01  -4.1809813679091468e-01  -4.1201025747295389e-01  -4.1620557898199734e-01  -4.2140726097714931e-01  -4.2651072709165366e-01  -4.7715109614401091e-01  -3.8166572673822546e-01  -4.9942138970864047e-01  -5.1474490378881199e-01  -3.7323255271351746e-01  -3.5963576834995298e-01  -3.2284060829660571e-01  -3.1910988716623895e-01  -4.6114147239688102e-01  -3.3834028533193061e-01  -3.3499105396534035e-01  -3.3278336617807902e-01  -4.8144905527557408e-01  -4.8417351814739268e-01  -3.7469724740588106e-01  -4.1033939784915152e-01  -4.1300893580403347e-01  -4.1132645347926355e-01  -4.2036549267008178e-01  -3.4613693595157630e-01  -3.7354484373794289e-01  -4.2447241221249277e-01  -4.2889292120872963e-01  -5.0416530735725207e-01  -3.7178131968485750e-01  -4.6426262161898862e-01  -4.5465147314982779e-01  -4.6233583064563916e-01  -3.8747652391272142e-01  -4.8639841346627177e-01  -5.0866462382669619e-01  -5.0168071049486729e-01  -5.0355886180800313e-01  -4.9752890301789637e-01  -5.1570145312893456e-01  -5.2158808029101589e-01  -4.3114945618268313e-01  -4.3022469940048391e-01  -5.0263082511746926e-01  -4.6119499121556845e-01  -3.6392886950121944e-01  -4.0122218810451138e-01  -4.1949910207173008e-01  -4.1683704622755458e-01  -4.3242694981243546e-01  -4.3591894082000704e-01  -4.2487477881266955e-01  -3.8413685305436990e-01  -3.7435814428550140e-01  -3.6034647340825615e-01  -4.7125661430552535e-01  -4.8463020137909990e-01  -4.3123849529003111e-01  -4.1922806851055650e-01  -4.5755680185155190e-01  -3.5545830087408398e-01  -3.4844276101897970e-01  -3.3477015303701085e-01  -3.5875144359237932e-01  -3.3028710645953185e-01  -3.1998942766833866e-01  -4.1546909632439588e-01  -4.3324797873718007e-01  -4.3807261810382331e-01  -3.8521640703085747e-01  -3.7636973084996200e-01  -3.9781566822104336e-01  -4.2382875830907690e-01  -4.1197723050967672e-01  -3.5675112212969412e-01  -4.4821281184496586e-01  -4.5632181469723876e-01  -4.0774156766684244e-01  -3.7846262717793133e-01  -4.4918166964271128e-01  -4.9577281744659468e-01  -5.1700915931740177e-01  -5.0285513969512297e-01  -4.8277644027845268e-01  -4.0650590997346642e-01  -3.8903230727555571e-01  -4.5384072082604904e-01  -4.7596925601307133e-01  -3.9007013611925345e-01  -4.7963371017614392e-01  -4.6867163553953489e-01  -3.2340976355156653e-01  -3.1173794871732485e-01  -3.4034406872555517e-01  -3.9632395969772899e-01  -3.4691418654997003e-01  -3.4767981665603631e-01  -3.5321658141829931e-01  -3.6048782985502076e-01  -3.8696906775199758e-01  -4.5196216524982902e-01  -4.1715076668509599e-01  -4.5017431399338104e-01  -4.7337704701524536e-01  -4.5323237386674553e-01  -3.4160656823237867e-01  -3.6409410511750007e-01  -3.5527686158696026e-01  -3.8642434623900418e-01  -4.0347267377258561e-01  -4.0973222329795217e-01  -4.8928151259719049e-01  -4.9028100133167818e-01  -4.1514202754041113e-01  -4.1935344085414805e-01  -4.5021562652674046e-01  -3.5236993648306492e-01  -4.1348162193435500e-01  -4.0755402964469989e-01  -5.0782164294430399e-01  -4.8294054932922881e-01  -4.8476021433859739e-01  -4.4694939654036142e-01  -4.4883136754109065e-01  -3.7298586399825090e-01  -3.5563462565868859e-01  -3.5362578663716510e-01  -4.0925044500569441e-01  -4.0475224146736583e-01  -4.1207389170400693e-01  -4.1816860324108401e-01  -4.1852710541400284e-01  -4.2861302751560670e-01  -4.3220421193027370e-01  -4.0470925520278161e-01  -4.0722416741152329e-01  -3.9951696081924348e-01  -3.9327444814012624e-01  -3.9324955095686454e-01  -3.8961056466437860e-01  -3.8391544486554430e-01  -3.9676303293983256e-01  -4.0064943704497014e-01  -4.4267895203706648e-01  -4.2111426683695080e-01  -4.2924059873008757e-01  -4.3156322857923896e-01  -4.2753834608817248e-01  -4.3145565492881172e-01  -4.0762151515892908e-01  -3.9279074421653654e-01  -4.4087785895385839e-01  -4.3765876987461833e-01  -4.0902539741720184e-01  -4.1399676293468390e-01  -4.1161106307755563e-01  -4.1837474434443372e-01  -4.2455102152159191e-01  -4.2377931707406125e-01  -4.1706508762126948e-01  -4.1587059447584057e-01  -4.2006229789937305e-01  -4.0156558322449115e-01  -4.2241794580332642e-01  -4.1461988437919395e-01  -4.1997112559238359e-01  -4.2123992032778912e-01  -4.2537617772000641e-01  -4.1899562723692252e-01  -4.1838766635276042e-01  -4.1084038113699817e-01  -4.1650380231747458e-01  -4.1192337154980346e-01  -4.0876154647917429e-01  -4.1575136649878680e-01  -4.1339486980740048e-01  -4.0950208995442050e-01  -4.1298591556549558e-01  -4.1304575103704205e-01  -4.2660106806267445e-01  -4.2166501199609613e-01  -4.2761304136118589e-01  -4.2125902122586062e-01  -4.3081329967475263e-01  -4.3446342211963584e-01  -4.3781821794834430e-01  -4.3178114796606504e-01  -4.2603095651151573e-01  -3.9376232270634481e-01  -4.0316266194713668e-01  -4.0544728043404477e-01  -4.1774981073845519e-01  -4.1808642621188757e-01  -4.2093755746612938e-01  -4.1846608161049698e-01  -4.1680343725277419e-01  -4.4214091084481771e-01  -4.2897727657383722e-01  -4.4031146988306591e-01  -4.3195745803458130e-01  -4.2499016050584904e-01  -4.1800253133033471e-01  -4.4229161974090164e-01  -4.3430484533113223e-01  -4.3695246586743752e-01  -3.9374227838008208e-01  -4.0193552931245569e-01  -4.0300386913932967e-01  -3.9576935693289256e-01  -4.1855766419450380e-01  -4.0799852697268241e-01  -4.0183397124420506e-01  -4.0593737261665885e-01  -3.9403537525110893e-01  -3.8803411387969472e-01  -4.1598640181706192e-01  -4.1398857626297442e-01  -4.1809559470686652e-01  -4.1610942142683677e-01  -4.2200689371265288e-01  -4.1856532061391416e-01  -4.0995427301634624e-01  -4.1111169279663462e-01  -4.4320146087912854e-01  -4.4305481981671996e-01  </DataArray> 
</PointData> 
</Piece>
</UnstructuredGrid>
</VTKFile>