<?xml version="1.0"?>
<VTKFile type="UnstructuredGrid"  version="0.1"  >
<UnstructuredGrid>
<Piece  NumberOfPoints="778" NumberOfCells="1401">
<Points>
<DataArray  type="Float64"  NumberOfComponents="3"  format="ascii">1 -1 0  6 -1 0  6 1 0  1 1 0  1 6 0  -1 6 0  -1 1 0  -6 1 0  -6 -1 0  -1 -1 0  -1 -6 0  1 -6 0  1 3.5 0  -1 3.5 0  -1 -3.5 0  1 -3.5 0  3.5 -1 0  3.5 1 0  -3.5 -1 0  -3.5 1 0  -1 -2.25 0  1 -2.25 0  2.25 -1 0  2.25 1 0  -1 2.25 0  1 2.25 0  -1 4.75 0  1 4.75 0  -4.75 -1 0  -4.75 1 0  -2.25 1 0  -2.25 -1 0  1 -4.75 0  -1 -4.75 0  4.75 1 0  4.75 -1 0  0 0 0  -2.875 0 0  -1.625 0 0  -4.125 0 0  -6 0 0  0 2.875 0  2.875 0 0  0 6 0  1.625 0 0  0 -2.875 0  0 -1.625 0  0 1.625 0  0 4.125 0  0 -6 0  0 -4.125 0  4.125 0 0  6 0 0  -0.109375 5.0625 0  -5.0625 -0.109375 0  -0.109375 -5.0625 0  5.0625 0.109375 0  0.8125 -0.1875 0  -0.1875 -0.8125 0  -0.8125 0.1875 0  -0.1875 0.8125 0  1 5.375 0  -5.375 1 0  1 -5.375 0  5.375 -1 0  0.53515625 0.46484375 0  -5.375 -1 0  -1 5.375 0  -1 -5.375 0  -0.5 -6 0  5.375 1 0  6 0.5 0  3.5 0.3046875 0  3.43125 -0.34765625 0  2.875 -1 0  4.125 1 0  0.3046875 3.5 0  -0.34765625 3.56875 0  -1 4.125 0  1 4.125 0  -0.3046875 2.25 0  0.34765625 2.18125 0  1 1.625 0  -1 -1.625 0  -0.3046875 -3.5 0  0.34765625 -3.56875 0  1 -4.125 0  0.3046875 -2.25 0  -0.34765625 -2.18125 0  -1 -4.125 0  -1 -2.875 0  1 -2.875 0  1 -1.625 0  1.625 -1 0  1.625 1 0  2.25 0.3046875 0  2.18125 -0.34765625 0  4.125 -1 0  2.875 1 0  1 2.875 0  -1 1.625 0  -1 2.875 0  -4.125 -1 0  -2.25 0.3046875 0  -2.31875 -0.34765625 0  -2.875 -1 0  -1.625 1 0  -4.125 1 0  -3.5 0.3046875 0  -3.56875 -0.34765625 0  -1.625 -1 0  -2.875 1 0  0.380626321794301 1.06853329530276 0  -1.110819327731092 -0.3739495798319328 0  0.3739495798319328 -1.110819327731092 0  1.151210293219304 0.3991939332620648 0  -0.5 -4.4375 0  0.5 -4.4375 0  5.481553398058253 -0.3712833737864077 0  0.5 4.4375 0  0.5 6 0  -0.522503783594538 -0.3265648647465863 0  -1.3125 0.5 0  -0.5 6 0  0.3265648647465863 -0.522503783594538 0  4.4375 0.5 0  4.4375 -0.5 0  0.5 -6 0  -6 -0.5 0  -5.481553398058253 0.3712833737864077 0  -4.55 -0.4296875 0  -4.4375 0.5 0  -0.5 4.4375 0  0.4792930825242718 5.026881067961165 0  0.4792930825242718 -5.026881067961165 0  -0.5 1.3125 0  1.3125 -0.5 0  -0.5 -1.3125 0  0.25 5.518539952962044 0  0.2125133872612723 -5.500076563152851 0  4.969341874373811 -0.5152550785163683 0  -4.969341874373811 0.5152550785163683 0  3.927189744345589 -0.4712876597840069 0  -5.554036458333333 -0.25 0  5.554036458333333 0.25 0  -0.4690710616438356 -5.462756849315069 0  -0.4690710616438356 5.462756849315069 0  -6 0.5 0  -1.59556436210848 -0.5 0  -3.058421751829955 -0.5 0  -0.5 2.731982421875 0  0.5 2.691578248170045 0  2.691578248170045 -0.5 0  1.641211254104555 0.5 0  0.5 -1.768017578125 0  0.5 -3.058421751829955 0  0.5 1.699267578125 0  3.018017578125 0.5 0  -0.5 -3.018017578125 0  -2.731982421875 0.5 0  6 -0.5 0  -4.050017120925308 -0.5006099332648871 0  -3.940668202764977 0.5371363767281105 0  3.940668202764977 0.5371363767281105 0  0.4517449476047904 3.958458083832335 0  -0.4517449476047904 -3.958458083832335 0  -1.809331797235023 0.5371363767281105 0  -0.4517449476047904 1.791541916167665 0  -0.0546875 4.59375 0  -5.006445312499999 -0.58984375 0  4.605643203883496 -0.04725424757281554 0  4.90625 0.5546875 0  -0.5546875 4.90625 0  0.04725424757281554 -4.605643203883496 0  -0.586116118210531 -4.995821561900013 0  -4.603710222472543 0.04846236095466061 0  -3.1875 0.65234375 0  0.6163907621110913 3.147502300973589 0  2.5625 0.65234375 0  0.6163907621110913 -2.602497699026411 0  -0.637456713551384 3.189259902731882 0  -0.637456713551384 -2.560740097268118 0  -0.34765625 0.34765625 0  -0.639453125 0.708203125 0  0.089630126953125 0.437286376953125 0  -0.4238281249999999 -1.746875 0  1.746875 -0.4238281249999999 0  -0.4238281249999999 4.003125 0  0.4238281249999999 -4.003125 0  -2.5625 -1 0  3.1875 -1 0  -0.09375 -1.21875 0  1.21875 -0.09375 0  0.4020305405760241 -0.1120343241705621 0  -0.6280191027904287 -0.7577505545748082 0  0.90625 -0.59375 0  -1.205500904741459 0.03633725387965409 0  -0.02129048848213058 1.202028574265107 0  -0.1120343241705621 -0.4020305405760241 0  1 1.3125 0  -2.003587563743074 -0.6442361556699288 0  0.6640077663259718 -1.395873598614549 0  5.6875 -1 0  0.6308138580859101 -5.592151086468728 0  -5.6875 -1 0  0.6568032075915271 5.612942566073222 0  5.616530031741774 0.6612875396772174 0  -5.6875 1 0  1.9375 1 0  -1.3125 -1 0  0.1524679547155687 -3.232579139388032 0  0.1524679547155687 2.517420860611968 0  -3.232579139388032 -0.1524679547155687 0  -1.932320553757026 -0.252759244693845 0  2.517420860611968 -0.1524679547155687 0  -0.04776045819569434 -2.464949198504599 0  -0.2420369079104247 3.187693796852321 0  3.751304711039982 -0.1203080877045035 0  -5.397601941771943 -0.609026059866711 0  1.3125 1 0  1.9375 -1 0  -0.6946315101963667 -2.018229242739021 0  -0.6946315101963667 3.731770757260979 0  1 -3.8125 0  2.014364435550335 0.6166648446293641 0  -1 5.6875 0  -1 -5.6875 0  -2.653476149871182 -0.5942957192996303 0  3.096523850128818 -0.5942957192996303 0  1 1.9375 0  -3.8125 -1 0  0.586975531244212 -0.7975955463807081 0  -0.2946248980953088 -4.743710873809568 0  2.625453376770019 0.2814788818359375 0  -3.124546623229981 0.2814788818359375 0  -0.1204856417894853 5.631800603217465 0  5.253862011026742 0.6581468962876398 0  -0.65234375 2.108701557941197 0  0.65234375 3.641298442058803 0  -0.65234375 -3.641298442058803 0  -0.25 -5.744880569758637 0  -4.4375 -1 0  -0.3166212631734941 -2.713595940002554 0  0.6591479224207506 0.1324305912687024 0  0.8660781906552419 0.6468634238104103 0  -0.9887189158197679 0.6452930723873549 0  0.3149351927204296 -1.460971774996065 0  -0.3572852727880474 -0.009629022788047503 0  2.09375 -0.6866724363772454 0  0.6866724363772454 -3.65625 0  0.6866724363772454 2.09375 0  -3.65625 -0.6866724363772454 0  -3.5371337890625 0.65234375 0  -0.1389584113023952 1.944025352615082 0  -2.151744288472698 0.65234375 0  -0.1389584113023951 -3.805974647384918 0  0.1389584113023951 3.805974647384918 0  -2.578772109813904 0.1857224367977529 0  3.171227890186096 0.1857224367977529 0  3.360315647536819 0.65234375 0  0.1857224367977528 -1.921227890186096 0  0.65234375 -2.110315647536819 0  1.894016528727564 0.2415406141485869 0  -3.738232421875 0 0  0.2516875549238616 3.139069895099618 0  -1.913724396854074 0.2011142179916434 0  0.1669456568161915 0.7843410671359501 0  -2.5625 1 0  -1 -3.1875 0  -1 2.5625 0  0.1736601499778735 4.857955663330752 0  -0.1893536587212888 2.577300639071919 0  -0.1893536587212888 -3.172699360928081 0  3.852271904453858 0.206603749322895 0  -3.8125 1 0  -0.1250095034621793 -5.421707592768541 0  3.8125 -1 0  3.617304217264373 -0.6578427703661498 0  0.2630176195580202 -2.636558318495885 0  0.2674330357770522 1.399517071108871 0  0.631726413079416 1.339254523727593 0  4.700571879807737 0.2813704945051134 0  0.7143844363649634 -3.319538455208831 0  2.430461544791169 -0.7143844363649634 0  0.7143844363649634 2.430461544791169 0  -3.319538455208831 -0.7143844363649634 0  5.687045771608623 -0.6520598572553891 0  -5.687045771608623 0.6520598572553891 0  -1.15625 -0.7048248829733235 0  3.438284572973296 -0.01860298867862281 0  -0.03021088078697859 3.451572359862192 0  2.216682837011589 -0.02159585961918548 0  -2.191580885932936 -0.03126387444658879 0  0.1857410764408683 1.895679405349457 0  3.103473238297955 -0.253270943723272 0  -2.646526761702045 -0.253270943723272 0  -2.333137350671861 -0.6791984914172315 0  -1 5.0625 0  -0.6971235589909319 5.213002544375844 0  0.01618705363819947 2.225929180591695 0  0.01618705363819947 -3.524070819408305 0  0.5690054882403073 0.7951310720450595 0  -0.5764940424412852 -3.329579265180942 0  -0.5764940424412852 2.420420734819058 0  3.8125 1 0  -5.372163860234628 0.04365139563106807 0  5.164108319316826 -0.225040894204947 0  -5.361952437854323 0.6744012088984681 0  -5.0625 1 0  5.286835586913878 -0.6616705837083201 0  -5.692815197359722 0.1186699900166531 0  5.663425996156958 -0.07763197815533956 0  -0.9219866027132193 -0.1143045829323572 0  -1.394333629759332 -0.2233077430199216 0  0.09322478991596644 -0.9616596638655462 0  5.0625 -1 0  -0.14412109375 -1.92169189453125 0  -4.28125 -0.7212148987671345 0  0.2649796277366407 0.1735162902120744 0  -4.907855692236596 0.1868230509619793 0  -1.9375 1 0  1 5.0625 0  0.6915124486819284 -5.272938212550202 0  0.683483242673902 5.284948082526911 0  2.5625 -1 0  -1 -3.8125 0  -1 1.9375 0  5.0625 1 0  -1 -1.9375 0  1 5.6875 0  1 -5.6875 0  -1.9375 -1 0  -1 -2.5625 0  -1 3.1875 0  1 -3.1875 0  1 -2.5625 0  1 2.5625 0  1 3.1875 0  -5.0625 -1 0  -1 -1.3125 0  1.3125 -1 0  -1 1.3125 0  -1 3.8125 0  -1 4.4375 0  -4.4375 1 0  4.4375 -1 0  4.4375 1 0  -1.3125 1 0  1 4.4375 0  1 -4.4375 0  -1 -5.0625 0  -1 -4.4375 0  -3.1875 1 0  2.5625 1 0  1 -1.9375 0  1 -1.3125 0  5.6875 1 0  1 3.8125 0  3.1875 1 0  -3.1875 -1 0  1 -5.0625 0  1.35138038998199 0.6675097549271188 0  -0.465625 0.986328125 0  1.435958105992309 0.2563920171199723 0  1.915914614192913 -0.145782394639918 0  -0.8764440609469509 -0.5746869313612541 0  5.355194559946098 0.01566259380337612 0  -5.69333042954964 -0.5242868300459975 0  1.78125 -0.7320750794491524 0  0.7320750794491525 -3.96875 0  -0.3959075548864684 5.166422468926435 0  -4.770522389068053 -0.2123670725088856 0  -4.714160156249999 -0.69234375 0  -4.273484403713342 -0.278160994327167 0  0.9642590244517505 0.08196089404241463 0  0.3500261717645397 -4.727285205957206 0  0.6740868006020392 -4.765147848348443 0  0.6797550207247084 -1.089747806381148 0  -5.186479934354063 0.3046329157552757 0  -5.263288238215326 -0.3369092276308425 0  -2.433484016245305 0.5442571297016638 0  0.1707808983307866 -3.82363304980935 0  -0.1554012991031027 3.867535742674252 0  4.855508096805579 -0.2283975605264581 0  3.644517238097614 0.5646428152488787 0  0.05699603874439441 -0.6452791208413911 0  -0.3550018917972689 -0.5695324323732931 0  0.6
[...]
<PointData  Scalars="u"> 
<DataArray  type="Float64"  Name="u"  format="ascii">-4.9651192845822689e-01  0.0000000000000000e+00  0.0000000000000000e+00  -4.9342034542124735e-01  -9.8710038800993793e-01  -9.8710038800993793e-01  -4.9382826638950544e-01  0.0000000000000000e+00  0.0000000000000000e+00  -4.9375036533454059e-01  -9.8710038800993793e-01  -9.8710038800993793e-01  -7.5352323505862140e-01  -7.5443716626750235e-01  -7.5340700286923945e-01  -7.5395035599447502e-01  -2.3355251232108062e-01  -2.3399145717636358e-01  -2.3323656519765731e-01  -2.3392039903463832e-01  -6.3712031937584668e-01  -6.3825452576673114e-01  -3.4967783794085566e-01  -3.4980703724691464e-01  -6.3826174351797149e-01  -6.3773630955149740e-01  -8.6970151074894253e-01  -8.7046228296736727e-01  -1.1676649053379688e-01  -1.1663184152607012e-01  -3.5038322227980423e-01  -3.5010305939046288e-01  -8.7105116009245154e-01  -8.7048307523956259e-01  -1.1778924102336437e-01  -1.1663815699795917e-01  -4.9328688744363558e-01  -2.9144846034708666e-01  -4.0665823595978295e-01  -1.7496779821941669e-01  0.0000000000000000e+00  -6.9595654538159535e-01  -2.9141746127673451e-01  -9.8710038800993793e-01  -4.0635992936939691e-01  -6.9594051982443528e-01  -5.8087376220479947e-01  -5.8089477175815762e-01  -8.1238947146649720e-01  -9.8710038800993793e-01  -8.1231575609942774e-01  -1.7490804260337955e-01  0.0000000000000000e+00  -8.9971184875362753e-01  -8.7552409034724429e-02  -8.9975251547662349e-01  -8.7461461821441711e-02  -4.7008555775453698e-01  -5.1679862221827788e-01  -4.7027754668596122e-01  -5.1679389976073409e-01  -9.2875300902750368e-01  -5.8246103841669637e-02  -9.2842401525509899e-01  -5.7912655645939864e-02  -4.9067053308703373e-01  -5.9448914449258435e-02  -9.2920312452432019e-01  -9.2875084667813301e-01  -9.8710038800993793e-01  -5.7943903626193227e-02  0.0000000000000000e+00  -2.3331635146631963e-01  -2.3962433860028567e-01  -2.9147093497028720e-01  -1.7465759804845982e-01  -7.5419431027460448e-01  -7.6059150352855043e-01  -8.1232410164674562e-01  -8.1252836708655840e-01  -6.3780960799038122e-01  -6.3139992774693932e-01  -5.7831860404055324e-01  -5.7800008691620886e-01  -7.5408925055175779e-01  -7.6052897839621270e-01  -8.1232733000342783e-01  -6.3778805595645038e-01  -6.3134409937136615e-01  -8.1179404467502347e-01  -6.9640488528220168e-01  -6.9657799148522426e-01  -5.7826158952867945e-01  -4.0968207953950131e-01  -4.0929622357888162e-01  -3.4953260206004172e-01  -3.5589462205469913e-01  -1.7524478346085542e-01  -2.9141273788902006e-01  -6.9526887320769470e-01  -5.7803166220838520e-01  -6.9538089036871376e-01  -1.7520474974140671e-01  -3.4974174269723429e-01  -3.4332942222575014e-01  -2.9140459324173962e-01  -4.0995843865781922e-01  -1.7507033130837071e-01  -2.3326233625435622e-01  -2.2680987356501794e-01  -4.0962167322540977e-01  -2.9146331691012611e-01  -5.3149059045074731e-01  -4.5225102382661053e-01  -5.3512553158280673e-01  -4.4936169310868362e-01  -8.4145463537547849e-01  -8.4141333991535405e-01  -4.8441193600670542e-02  -8.4149054677095902e-01  -9.8710038800993793e-01  -4.8720675504414129e-01  -4.3709532158098729e-01  -9.8710038800993793e-01  -4.9961053948088929e-01  -1.4581479250641807e-01  -1.4574576651512652e-01  -9.8710038800993793e-01  0.0000000000000000e+00  -4.8443378259031562e-02  -1.3538196902739849e-01  -1.4582349654308460e-01  -8.4135521995828988e-01  -8.9633023164169845e-01  -8.9639728485473857e-01  -5.5061406384651157e-01  -4.3655546863911998e-01  -5.5030857552167378e-01  -9.4222057898825606e-01  -9.4050776808783909e-01  -9.6286013333848480e-02  -9.6172896623429857e-02  -1.9335990807984707e-01  -4.1688440254981793e-02  -4.1558348159780115e-02  -9.3699573175468032e-01  -9.3700125540919599e-01  0.0000000000000000e+00  -4.1096177765151287e-01  -2.7434275220941362e-01  -6.8266825898105510e-01  -6.7881439118988418e-01  -3.0849589472910460e-01  -4.0632601987076117e-01  -5.9269672636232151e-01  -7.1305481550686345e-01  -5.8634779425241568e-01  -2.7817796885576218e-01  -7.0917605419318830e-01  -3.0470528478238390e-01  0.0000000000000000e+00  -1.8196286391971370e-01  -1.9224511074001940e-01  -1.9220005983130625e-01  -7.9696466943282418e-01  -7.9674749809253431e-01  -3.9104184130726199e-01  -5.9502570170336777e-01  -8.5601510418680193e-01  -9.2869591084257810e-02  -1.3010472897539369e-01  -1.0204830990202687e-01  -8.8510126473450623e-01  -8.5712850681509190e-01  -8.9357196011401829e-01  -1.3033214756148367e-01  -2.6230268262727280e-01  -7.2138548908706757e-01  -3.2060439297864551e-01  -6.7050864710370151e-01  -7.2508378956944275e-01  -6.6672754231057640e-01  -4.9356078658328484e-01  -4.9737403053148865e-01  -5.0020286891492161e-01  -5.9091172952894155e-01  -3.9624481535875178e-01  -8.0106550891765915e-01  -8.0100288357001703e-01  -3.2006570158198155e-01  -2.6252576377003078e-01  -5.4624200596715644e-01  -4.4080233260466234e-01  -4.8767367574561549e-01  -5.0023862658232998e-01  -4.7415905135529940e-01  -4.4190962141841289e-01  -5.4503603253168786e-01  -4.9895223838488245e-01  -5.4728800859444648e-01  -3.7303070101782287e-01  -5.5647977874508259e-01  -2.9354508015212930e-02  -9.4912709135578710e-01  -2.8541318152069717e-02  -9.5107045614941332e-01  -3.5654912325733347e-02  -3.0076538011600991e-02  -3.7914298652319739e-01  -4.4039322819120807e-01  -7.2922983581064060e-01  -6.6268883982649518e-01  -2.5813985991392652e-01  -3.7910589479783752e-01  -3.2464498980001111e-01  -6.5780867180316138e-01  -7.2507531487023913e-01  -2.0976785647961749e-01  -5.6354001864336437e-02  -4.4063011833614329e-01  -3.7949502128055074e-01  -6.1564037254929571e-01  -7.7591654347726802e-01  -7.8352334199749107e-01  -3.7177510466241254e-01  -9.5744232488684289e-01  -9.5738723029591788e-01  -3.1216736918299631e-01  -2.7078084319398132e-01  -6.0766570510409468e-01  -2.0375737067249200e-01  -5.0488167093300196e-01  -8.7002584212630263e-01  -3.1466003834924566e-01  -2.6821825012594169e-01  -9.5275934718913202e-01  -6.9579520330102215e-02  -6.2450185640204148e-01  -7.6741293960515788e-01  -7.6719785045446476e-01  -9.6327620317602347e-01  -1.4554569430410175e-01  -6.8093941385517509e-01  -4.7786612568389658e-01  -4.7895620934911720e-01  -4.6920303820125930e-01  -5.6548191782300194e-01  -4.8867515938988620e-01  -3.6430745330614456e-01  -7.6868830114415476e-01  -6.2301255566416325e-01  -2.1865439640311396e-01  -2.2990549775720687e-01  -6.0967708935779008e-01  -3.5901220085863234e-01  -7.8258893683317321e-01  -7.8270375708903950e-01  -3.1902814192213702e-01  -2.6387809772306953e-01  -2.4620321390461450e-01  -6.0749681758501684e-01  -6.2458436475885137e-01  -3.8235106397707591e-01  -2.1102228363318443e-01  -7.2057470735754203e-01  -3.8073326469917051e-01  -5.1533260867547104e-01  -3.1943759552608575e-01  -7.2471551940722967e-01  -6.6709656643089188e-01  -8.8063613299431509e-01  -6.6826604141855173e-01  -7.2362373035541083e-01  -2.0033873349038547e-01  -2.0348478136423748e-01  -9.3321502329190265e-01  -2.0373927920160254e-01  -2.2224686712896052e-01  -6.7373581695353491e-01  -5.6044559547251183e-01  -5.5092587307372443e-01  -1.2126894080058796e-01  -7.3735848540343496e-01  -3.3283525713882195e-01  -6.5443274416872987e-01  -2.5002914929625986e-01  -2.9351573483086695e-02  -2.9426688677685345e-02  -4.5527039166292615e-01  -2.3898029443107571e-01  -7.4967561747759826e-01  -3.5250134188102833e-01  -3.5502901551800825e-01  -6.0517308583954077e-01  -2.7013952165637095e-01  -3.1275790886452787e-01  -3.4224294188336168e-01  -9.0053939508893566e-01  -9.1367113143350309e-01  -6.3566154826240373e-01  -7.5635422651822404e-01  -5.0531068408794777e-01  -7.3824561448360815e-01  -6.5355119474293366e-01  -2.0304231793461916e-01  -5.8640758361658871e-02  -7.8033478442045778e-02  -5.9496050258312227e-02  -8.7554489667774030e-02  -6.6580636433841892e-02  -2.8713920479846961e-02  -3.1408193120570409e-02  -4.6294407831988693e-01  -4.2720032250697498e-01  -5.2712222790393604e-01  -8.8256397162981295e-02  -6.0754625957802133e-01  -1.6039590981877697e-01  -4.9187049862341387e-01  -1.0194832750416760e-01  -3.8030236956401436e-01  -8.9921651363472321e-01  -9.1937526032298056e-01  -9.2050616654276396e-01  -3.2004905683820956e-01  -7.8370781569318049e-01  -6.0752933349038551e-01  -8.6978108298392504e-02  -6.0731517429468929e-01  -9.5884588471400323e-01  -9.5896374298626952e-01  -3.8038324548770724e-01  -6.6738135909102614e-01  -7.2441297813299044e-01  -7.2481650310037549e-01  -6.6585524955433861e-01  -6.6699466369219507e-01  -7.2602666467889487e-01  -8.7624368736987507e-02  -5.4792248132020605e-01  -4.4298514225853025e-01  -5.4779633526462934e-01  -7.8378066407357916e-01  -8.4097943357251204e-01  -1.4573325418276251e-01  -1.4541295498850457e-01  -1.4601030534689086e-01  -4.4023997155389061e-01  -8.4147820361903569e-01  -8.4113713841911553e-01  -9.0087357957595837e-01  -8.4120132700757222e-01  -2.6240261077085131e-01  -3.2088808787015166e-01  -6.0757071060212164e-01  -5.4769653192756762e-01  -2.8145748075383097e-02  -7.8378879053215789e-01  -2.6317621359401611e-01  -2.6277405156056860e-01  -8.9931309863918096e-01  -4.3570520192060924e-01  -5.2312800732962850e-01  -4.2355921709612615e-01  -3.8020644630981010e-01  -4.7649539455953022e-01  -6.0147105557426292e-02  -2.8755014594866662e-02  -3.9384225446356791e-01  -7.9775596615080990e-01  -9.0951354905714377e-01  -1.1480422659739191e-01  -1.2005808916181142e-01  -1.6113255602511492e-01  -4.5969321035299560e-01  -8.6846396105497481e-01  -8.7205701023159266e-01  -5.2650199529589448e-01  -7.5918811569566452e-02  -6.8861623915020279e-02  -3.3274885259301296e-01  -7.8425677793376491e-01  -7.8842866642462139e-01  -1.0681435284993841e-01  -2.1978330565671472e-01  -5.0881593118138047e-01  -5.0093723602900120e-01  -4.8562298951870053e-01  -4.9532065531927361e-01  -1.9298722355935494e-01  -8.8506034038396764e-01  -9.1096029170213555e-01  -9.1042151057248744e-01  -8.6875888876470431e-01  -8.2697391509332341e-01  -1.3118113344666263e-01  -1.3119051848236976e-01  -4.2423698956919997e-01  -4.5627727857525469e-01  -9.6092910632676953e-01  -5.6267003971572882e-01  -5.2321621949394970e-01  -4.2061903643840870e-01  -5.2835174400614204e-01  -5.6648467938299096e-01  -8.2439608948780951e-01  -8.2441758383495145e-01  -4.5522884676113273e-01  -5.7321458930825842e-01  -1.5439411115405988e-01  -8.6563252130032331e-01  -8.3661509139263757e-01  -8.7579485350227548e-01  -8.2681471460835043e-01  -8.6133350459523772e-01  -8.3652260919503518e-01  -5.2855362858702171e-01  -5.6302051736363701e-01  -4.2387554494007473e-01  -4.1665680049760284e-01  -8.1702714504185581e-01  -1.5058681084173112e-01  -1.6758494046357136e-01  -1.5419802708327290e-01  -1.6766838493028491e-01  -1.7063481164562910e-01  -1.2151021300185191e-01  -9.6095885526769986e-01  -8.5600455570451750e-01  -8.2685254848949918e-01  -6.8931154542614878e-02  -9.6256957397201159e-01  -4.2754943831422876e-01  -4.5615786820017895e-01  -4.7843293849985974e-01  -2.0611668985645132e-01  -4.7066102150479494e-01  -7.9785259815785481e-01  -5.9349630452335300e-01  -9.2614659761352347e-01  -8.8298589468613653e-01  -1.6983879435738469e-01  0.0000000000000000e+00  -1.2069561840866706e-01  -9.1429825142962351e-01  -1.7974678605236738e-01  -6.3015667862301072e-01  -5.9347734783165562e-01  -1.9351920794058358e-01  -8.0107461177523798e-01  -9.8710038800993793e-01  -2.4765935483069942e-01  -3.4671067427034324e-01  -4.7882290532889549e-01  -5.2439974750423124e-01  -3.9548621778952037e-01  -7.5102448620688933e-01  -6.4073087251588745e-01  -9.6085366283406548e-01  -9.6443337431191911e-01  -9.6284942351182834e-01  -1.9814500180289671e-01  -2.2114051249453631e-02  -9.1574583467005632e-01  -9.6249831275371167e-01  -7.9168478276850685e-01  -2.3209604278718286e-02  -6.5639036779275062e-01  -6.8131848424346741e-01  -7.1049354575001100e-01  -6.9918066290752545e-01  -6.9467237939756354e-01  -2.9348190374374955e-01  -3.0137421705005868e-01  -2.8933853848066116e-01  -2.8146710809309805e-01  -2.4994727800906097e-01  -3.3284357894062977e-01  -7.3741157318620865e-01  -6.5555506799769481e-01  -1.0649287855919254e-01  -1.2084973628255143e-01  -9.2417197490472569e-01  -2.3741169897793446e-01  -2.6938118863661881e-01  -2.9529661556041026e-01  -6.7287028117474357e-01  -7.1891729538154436e-01  -3.0600083831076114e-01  -5.9354367603235114e-01  -6.9902405969897707e-01  -7.3951981511408382e-01  -6.5224572027491012e-01  -5.1373625324241501e-01  -6.9889975688858663e-01  -2.9295449009431834e-01  -2.8992990378859179e-01  -6.9208018329388588e-01  -3.9426040727874195e-01  -9.8710038800993793e-01  -7.2669743278527404e-02  0.0000000000000000e+00  -2.0940309183859501e-02  -2.3617812970351537e-02  0.0000000000000000e+00  -1.7834659590827798e-01  -2.1647256600233858e-01  -9.3783814089584383e-01  -6.4616108222715862e-01  -7.4588089419296122e-01  -3.3304079334853853e-01  -9.3761905842675575e-01  -8.9537199966816416e-01  -3.3004772537671462e-01  -6.0922036232946386e-01  -2.0496282991404685e-01  -4.8340583217787253e-01  -8.1995211703737991e-01  -6.1671733539223328e-01  -2.5441080258638238e-01  -5.8283413200690748e-01  -8.2013048486152684e-01  -5.4101697838884000e-01  -4.3488092040812765e-01  -4.0523605788429862e-01  -9.2343790765945744e-01  -4.8022988087728991e-01  -5.6303023526805429e-01  -5.5606490107501627e-01  -5.4165206470645311e-01  -4.5390302195773496e-01  -5.6245032184417798e-01  -3.9295387226994249e-01  -3.7978335522798823e-01  -5.0211600476242868e-01  -4.9938718568997092e-01  -4.7419051561612452e-01  -4.6594958780612705e-01  -4.5687674459539490e-01  -4.0320477548324646e-01  -5.8643120112442337e-01  -4.6382600321830780e-01  -4.5811895726560609e-01  -5.1870964140464204e-01  -5.1184528533832674e-01  -5.0360558259848420e-01  -4.7103525354265802e-01  -5.2362745623477991e-01  -5.2018872871044719e-01  -4.9228612039565500e-01  -4.9465918164097356e-01  -4.9291636579296810e-01  -4.6785977433726089e-01  -4.9337084625694649e-01  -4.8612731114529467e-01  -4.9115014163253023e-01  -4.9736669907671383e-01  -5.0346926576068052e-01  -5.6431919206338099e-01  -4.4949406560338723e-01  -5.9051817639680582e-01  -6.0847620788332912e-01  -4.3979206740851406e-01  -4.2398167740717707e-01  -3.8046494939982184e-01  -3.7607834605775425e-01  -5.4519679927336839e-01  -3.9869189715983222e-01  -3.9479147561041344e-01  -3.9218270205227213e-01  -5.6920682317307314e-01  -5.7246606959244961e-01  -4.4169589662345815e-01  -4.8413803520590570e-01  -4.8733013417636067e-01  -4.8546515012875530e-01  -4.9628350446351716e-01  -4.0799377561550931e-01  -4.4044949756891261e-01  -5.0100316513570220e-01  -5.0630911395760303e-01  -5.9591426539973402e-01  -4.3836833636297290e-01  -5.4861932286155235e-01  -5.3737059553425481e-01  -5.4663665719504839e-01  -4.5644307726104644e-01  -5.7505691498770761e-01  -6.0129488207280379e-01  -5.9293857085539403e-01  -5.9515055086392477e-01  -5.8802193122285706e-01  -6.0957205301557349e-01  -6.1648621675655346e-01  -5.0916386831948957e-01  -5.0788688432129392e-01  -5.9406643039866625e-01  -5.4512274720523246e-01  -4.2899684316320746e-01  -4.7331287465935862e-01  -4.9504309168548821e-01  -4.9186383979981257e-01  -5.1059974600785896e-01  -5.1475561640220624e-01  -5.0190383911102021e-01  -4.5299564832433215e-01  -4.4125294115103603e-01  -4.2484615174511786e-01  -5.5692070939204941e-01  -5.7282227955586484e-01  -5.0916841727005502e-01  -4.9472086598499748e-01  -5.4075590894924686e-01  -4.1892384810456257e-01  -4.1058445973942254e-01  -3.9458480100011012e-01  -4.2268791238791004e-01  -3.8921896035848502e-01  -3.7709850936974587e-01  -4.9024910677859318e-01  -5.1152297996236695e-01  -5.1729572865798334e-01  -4.5431396033864152e-01  -4.4379474463773755e-01  -4.6925625007480759e-01  -5.0055574285035020e-01  -4.8619270052625724e-01  -4.2049671455433796e-01  -5.2939934349878792e-01  -5.3911047479692897e-01  -4.8086889259594467e-01  -4.4629726417025567e-01  -5.3057860933625445e-01  -5.8596743770398474e-01  -6.1110782862885704e-01  -5.9450700888777874e-01  -5.7068369528362539e-01  -4.7919003134184385e-01  -4.5702006404727258e-01  -5.3626329853702526e-01  -5.6298390434102918e-01  -4.5958890737845842e-01  -5.6725282634873786e-01  -5.5380668740834449e-01  -3.8118163164435981e-01  -3.6740054487646434e-01  -4.0116928091316217e-01  -4.6746052647231690e-01  -4.0879252066811683e-01  -4.0977519057751310e-01  -4.1634209036831688e-01  -4.2450695628832463e-01  -4.5636802517021341e-01  -5.3507961860006581e-01  -4.9225784685391527e-01  -5.3314669969160500e-01  -5.5986250080741573e-01  -5.3690210688926165e-01  -4.0265690915524333e-01  -4.2901450957950682e-01  -4.1857123998748125e-01  -4.5570236317976626e-01  -4.7598950529732564e-01  -4.8343989116216651e-01  -5.7850685605794216e-01  -5.7959793414781013e-01  -4.8984914534825624e-01  -4.9492843098744499e-01  -5.3303251640001181e-01  -4.1522137940572962e-01  -4.8791781020933045e-01  -4.8084291247435740e-01  -6.0024822190264249e-01  -5.7074794432901488e-01  -5.7296377453114589e-01  -5.2793240542212017e-01  -5.3013161816762489e-01  -4.3979493517633628e-01  -4.1920579998626517e-01  -4.1687479030553470e-01  -4.8284904155224262e-01  -4.7747271444283296e-01  -4.8621113077722655e-01  -4.9352521126608273e-01  -4.9398376610448125e-01  -5.0599982839543334e-01  -5.1037687880948612e-01  -4.7745318331627257e-01  -4.8042447867430016e-01  -4.7126544819904637e-01  -4.6385379376600588e-01  -4.6383462118726476e-01  -4.5951585339219919e-01  -4.5277545669015146e-01  -4.6800973558073267e-01  -4.7262004331815305e-01  -5.2283059981130753e-01  -4.9708851482852617e-01  -5.0672392174641101e-01  -5.0955559586516119e-01  -5.0477448689395565e-01  -5.0949132226844063e-01  -4.8092806768308483e-01  -4.6327416027252627e-01  -5.2066270838070861e-01  -5.1685330551732678e-01  -4.8262405346687487e-01  -4.8866666617292692e-01  -4.8578167749599432e-01  -4.9373138853610105e-01  -5.0116804313784502e-01  -5.0018309011814133e-01  -4.9213534657578711e-01  -4.9075418838872698e-01  -4.9572969307771780e-01  -4.7370873711887557e-01  -4.9854192992927826e-01  -4.8920138583999362e-01  -4.9563436834152202e-01  -4.9718909580323506e-01  -5.0212518408481421e-01  -4.9448889917399441e-01  -4.9374249355134753e-01  -4.8475574946545846e-01  -4.9150290475684749e-01  -4.8600930856082508e-01  -4.8226906294686883e-01  -4.9058791526863521e-01  -4.8778993923389191e-01  -4.8315306075095299e-01  -4.8731703783472674e-01  -4.8738948405327548e-01  -5.0355694855201505e-01  -4.9764829612415351e-01  -5.0477643899208036e-01  -4.9716335227142044e-01  -5.0862914318891284e-01  -5.1299136722692051e-01  -5.1696321283628888e-01  -5.0977707668703298e-01  -5.0288178310946474e-01  -4.6443798012510840e-01  -4.7559526101784161e-01  -4.7833815572685573e-01  -4.9294541884758736e-01  -4.9335620209171088e-01  -4.9676499531512697e-01  -4.9381180574126909e-01  -4.9182594514869388e-01  -5.2218990436929735e-01  -5.0652377719252817e-01  -5.2000729289068681e-01  -5.1013219515972874e-01  -5.0169754591804849e-01  -4.9324597065061282e-01  -5.2234643151151594e-01  -5.1279110434899211e-01  -5.1596235015084735e-01  -4.6441164817981606e-01  -4.7414746943208863e-01  -4.7543442351823473e-01  -4.6682852125663826e-01  -4.9410518084543342e-01  -4.8140109795326302e-01  -4.7409736009549941e-01  -4.7894710965277998e-01  -4.6477782411568747e-01  -4.5766459533165699e-01  -4.9089646731205472e-01  -4.8850132561382520e-01  -4.9336466068532037e-01  -4.9099769733372989e-01  -4.9808999938573428e-01  -4.9398904993137654e-01  -4.8371023241023914e-01  -4.8507558371734133e-01  -5.2340163184496713e-01  -5.2323276745151115e-01  </DataArray> 
</PointData> 
</Piece>
</UnstructuredGrid>
</VTKFile>