<?xml version="1.0"?>
<VTKFile type="UnstructuredGrid"  version="0.1"  >
<UnstructuredGrid>
<Piece  NumberOfPoints="778" NumberOfCells="1401">
<Points>
<DataArray  type="Float64"  NumberOfComponents="3"  format="ascii">1 -1 0  6 -1 0  6 1 0  1 1 0  1 6 0  -1 6 0  -1 1 0  -6 1 0  -6 -1 0  -1 -1 0  -1 -6 0  1 -6 0  1 3.5 0  -1 3.5 0  -1 -3.5 0  1 -3.5 0  3.5 -1 0  3.5 1 0  -3.5 -1 0  -3.5 1 0  -1 -2.25 0  1 -2.25 0  2.25 -1 0  2.25 1 0  -1 2.25 0  1 2.25 0  -1 4.75 0  1 4.75 0  -4.75 -1 0  -4.75 1 0  -2.25 1 0  -2.25 -1 0  1 -4.75 0  -1 -4.75 0  4.75 1 0  4.75 -1 0  0 0 0  -2.875 0 0  -1.625 0 0  -4.125 0 0  -6 0 0  0 2.875 0  2.875 0 0  0 6 0  1.625 0 0  0 -2.875 0  0 -1.625 0  0 1.625 0  0 4.125 0  0 -6 0  0 -4.125 0  4.125 0 0  6 0 0  -0.109375 5.0625 0  -5.0625 -0.109375 0  -0.109375 -5.0625 0  5.0625 0.109375 0  0.8125 -0.1875 0  -0.1875 -0.8125 0  -0.8125 0.1875 0  -0.1875 0.8125 0  1 5.375 0  -5.375 1 0  1 -5.375 0  5.375 -1 0  0.53515625 0.46484375 0  -5.375 -1 0  -1 5.375 0  -1 -5.375 0  -0.5 -6 0  5.375 1 0  6 0.5 0  3.5 0.3046875 0  3.43125 -0.34765625 0  2.875 -1 0  4.125 1 0  0.3046875 3.5 0  -0.34765625 3.56875 0  -1 4.125 0  1 4.125 0  -0.3046875 2.25 0  0.34765625 2.18125 0  1 1.625 0  -1 -1.625 0  -0.3046875 -3.5 0  0.34765625 -3.56875 0  1 -4.125 0  0.3046875 -2.25 0  -0.34765625 -2.18125 0  -1 -4.125 0  -1 -2.875 0  1 -2.875 0  1 -1.625 0  1.625 -1 0  1.625 1 0  2.25 0.3046875 0  2.18125 -0.34765625 0  4.125 -1 0  2.875 1 0  1 2.875 0  -1 1.625 0  -1 2.875 0  -4.125 -1 0  -2.25 0.3046875 0  -2.31875 -0.34765625 0  -2.875 -1 0  -1.625 1 0  -4.125 1 0  -3.5 0.3046875 0  -3.56875 -0.34765625 0  -1.625 -1 0  -2.875 1 0  0.380626321794301 1.06853329530276 0  -1.110819327731092 -0.3739495798319328 0  0.3739495798319328 -1.110819327731092 0  1.151210293219304 0.3991939332620648 0  -0.5 -4.4375 0  0.5 -4.4375 0  5.481553398058253 -0.3712833737864077 0  0.5 4.4375 0  0.5 6 0  -0.522503783594538 -0.3265648647465863 0  -1.3125 0.5 0  -0.5 6 0  0.3265648647465863 -0.522503783594538 0  4.4375 0.5 0  4.4375 -0.5 0  0.5 -6 0  -6 -0.5 0  -5.481553398058253 0.3712833737864077 0  -4.55 -0.4296875 0  -4.4375 0.5 0  -0.5 4.4375 0  0.4792930825242718 5.026881067961165 0  0.4792930825242718 -5.026881067961165 0  -0.5 1.3125 0  1.3125 -0.5 0  -0.5 -1.3125 0  0.25 5.518539952962044 0  0.2125133872612723 -5.500076563152851 0  4.969341874373811 -0.5152550785163683 0  -4.969341874373811 0.5152550785163683 0  3.927189744345589 -0.4712876597840069 0  -5.554036458333333 -0.25 0  5.554036458333333 0.25 0  -0.4690710616438356 -5.462756849315069 0  -0.4690710616438356 5.462756849315069 0  -6 0.5 0  -1.59556436210848 -0.5 0  -3.058421751829955 -0.5 0  -0.5 2.731982421875 0  0.5 2.691578248170045 0  2.691578248170045 -0.5 0  1.641211254104555 0.5 0  0.5 -1.768017578125 0  0.5 -3.058421751829955 0  0.5 1.699267578125 0  3.018017578125 0.5 0  -0.5 -3.018017578125 0  -2.731982421875 0.5 0  6 -0.5 0  -4.050017120925308 -0.5006099332648871 0  -3.940668202764977 0.5371363767281105 0  3.940668202764977 0.5371363767281105 0  0.4517449476047904 3.958458083832335 0  -0.4517449476047904 -3.958458083832335 0  -1.809331797235023 0.5371363767281105 0  -0.4517449476047904 1.791541916167665 0  -0.0546875 4.59375 0  -5.006445312499999 -0.58984375 0  4.605643203883496 -0.04725424757281554 0  4.90625 0.5546875 0  -0.5546875 4.90625 0  0.04725424757281554 -4.605643203883496 0  -0.586116118210531 -4.995821561900013 0  -4.603710222472543 0.04846236095466061 0  -3.1875 0.65234375 0  0.6163907621110913 3.147502300973589 0  2.5625 0.65234375 0  0.6163907621110913 -2.602497699026411 0  -0.637456713551384 3.189259902731882 0  -0.637456713551384 -2.560740097268118 0  -0.34765625 0.34765625 0  -0.639453125 0.708203125 0  0.089630126953125 0.437286376953125 0  -0.4238281249999999 -1.746875 0  1.746875 -0.4238281249999999 0  -0.4238281249999999 4.003125 0  0.4238281249999999 -4.003125 0  -2.5625 -1 0  3.1875 -1 0  -0.09375 -1.21875 0  1.21875 -0.09375 0  0.4020305405760241 -0.1120343241705621 0  -0.6280191027904287 -0.7577505545748082 0  0.90625 -0.59375 0  -1.205500904741459 0.03633725387965409 0  -0.02129048848213058 1.202028574265107 0  -0.1120343241705621 -0.4020305405760241 0  1 1.3125 0  -2.003587563743074 -0.6442361556699288 0  0.6640077663259718 -1.395873598614549 0  5.6875 -1 0  0.6308138580859101 -5.592151086468728 0  -5.6875 -1 0  0.6568032075915271 5.612942566073222 0  5.616530031741774 0.6612875396772174 0  -5.6875 1 0  1.9375 1 0  -1.3125 -1 0  0.1524679547155687 -3.232579139388032 0  0.1524679547155687 2.517420860611968 0  -3.232579139388032 -0.1524679547155687 0  -1.932320553757026 -0.252759244693845 0  2.517420860611968 -0.1524679547155687 0  -0.04776045819569434 -2.464949198504599 0  -0.2420369079104247 3.187693796852321 0  3.751304711039982 -0.1203080877045035 0  -5.397601941771943 -0.609026059866711 0  1.3125 1 0  1.9375 -1 0  -0.6946315101963667 -2.018229242739021 0  -0.6946315101963667 3.731770757260979 0  1 -3.8125 0  2.014364435550335 0.6166648446293641 0  -1 5.6875 0  -1 -5.6875 0  -2.653476149871182 -0.5942957192996303 0  3.096523850128818 -0.5942957192996303 0  1 1.9375 0  -3.8125 -1 0  0.586975531244212 -0.7975955463807081 0  -0.2946248980953088 -4.743710873809568 0  2.625453376770019 0.2814788818359375 0  -3.124546623229981 0.2814788818359375 0  -0.1204856417894853 5.631800603217465 0  5.253862011026742 0.6581468962876398 0  -0.65234375 2.108701557941197 0  0.65234375 3.641298442058803 0  -0.65234375 -3.641298442058803 0  -0.25 -5.744880569758637 0  -4.4375 -1 0  -0.3166212631734941 -2.713595940002554 0  0.6591479224207506 0.1324305912687024 0  0.8660781906552419 0.6468634238104103 0  -0.9887189158197679 0.6452930723873549 0  0.3149351927204296 -1.460971774996065 0  -0.3572852727880474 -0.009629022788047503 0  2.09375 -0.6866724363772454 0  0.6866724363772454 -3.65625 0  0.6866724363772454 2.09375 0  -3.65625 -0.6866724363772454 0  -3.5371337890625 0.65234375 0  -0.1389584113023952 1.944025352615082 0  -2.151744288472698 0.65234375 0  -0.1389584113023951 -3.805974647384918 0  0.1389584113023951 3.805974647384918 0  -2.578772109813904 0.1857224367977529 0  3.171227890186096 0.1857224367977529 0  3.360315647536819 0.65234375 0  0.1857224367977528 -1.921227890186096 0  0.65234375 -2.110315647536819 0  1.894016528727564 0.2415406141485869 0  -3.738232421875 0 0  0.2516875549238616 3.139069895099618 0  -1.913724396854074 0.2011142179916434 0  0.1669456568161915 0.7843410671359501 0  -2.5625 1 0  -1 -3.1875 0  -1 2.5625 0  0.1736601499778735 4.857955663330752 0  -0.1893536587212888 2.577300639071919 0  -0.1893536587212888 -3.172699360928081 0  3.852271904453858 0.206603749322895 0  -3.8125 1 0  -0.1250095034621793 -5.421707592768541 0  3.8125 -1 0  3.617304217264373 -0.6578427703661498 0  0.2630176195580202 -2.636558318495885 0  0.2674330357770522 1.399517071108871 0  0.631726413079416 1.339254523727593 0  4.700571879807737 0.2813704945051134 0  0.7143844363649634 -3.319538455208831 0  2.430461544791169 -0.7143844363649634 0  0.7143844363649634 2.430461544791169 0  -3.319538455208831 -0.7143844363649634 0  5.687045771608623 -0.6520598572553891 0  -5.687045771608623 0.6520598572553891 0  -1.15625 -0.7048248829733235 0  3.438284572973296 -0.01860298867862281 0  -0.03021088078697859 3.451572359862192 0  2.216682837011589 -0.02159585961918548 0  -2.191580885932936 -0.03126387444658879 0  0.1857410764408683 1.895679405349457 0  3.103473238297955 -0.253270943723272 0  -2.646526761702045 -0.253270943723272 0  -2.333137350671861 -0.6791984914172315 0  -1 5.0625 0  -0.6971235589909319 5.213002544375844 0  0.01618705363819947 2.225929180591695 0  0.01618705363819947 -3.524070819408305 0  0.5690054882403073 0.7951310720450595 0  -0.5764940424412852 -3.329579265180942 0  -0.5764940424412852 2.420420734819058 0  3.8125 1 0  -5.372163860234628 0.04365139563106807 0  5.164108319316826 -0.225040894204947 0  -5.361952437854323 0.6744012088984681 0  -5.0625 1 0  5.286835586913878 -0.6616705837083201 0  -5.692815197359722 0.1186699900166531 0  5.663425996156958 -0.07763197815533956 0  -0.9219866027132193 -0.1143045829323572 0  -1.394333629759332 -0.2233077430199216 0  0.09322478991596644 -0.9616596638655462 0  5.0625 -1 0  -0.14412109375 -1.92169189453125 0  -4.28125 -0.7212148987671345 0  0.2649796277366407 0.1735162902120744 0  -4.907855692236596 0.1868230509619793 0  -1.9375 1 0  1 5.0625 0  0.6915124486819284 -5.272938212550202 0  0.683483242673902 5.284948082526911 0  2.5625 -1 0  -1 -3.8125 0  -1 1.9375 0  5.0625 1 0  -1 -1.9375 0  1 5.6875 0  1 -5.6875 0  -1.9375 -1 0  -1 -2.5625 0  -1 3.1875 0  1 -3.1875 0  1 -2.5625 0  1 2.5625 0  1 3.1875 0  -5.0625 -1 0  -1 -1.3125 0  1.3125 -1 0  -1 1.3125 0  -1 3.8125 0  -1 4.4375 0  -4.4375 1 0  4.4375 -1 0  4.4375 1 0  -1.3125 1 0  1 4.4375 0  1 -4.4375 0  -1 -5.0625 0  -1 -4.4375 0  -3.1875 1 0  2.5625 1 0  1 -1.9375 0  1 -1.3125 0  5.6875 1 0  1 3.8125 0  3.1875 1 0  -3.1875 -1 0  1 -5.0625 0  1.35138038998199 0.6675097549271188 0  -0.465625 0.986328125 0  1.435958105992309 0.2563920171199723 0  1.915914614192913 -0.145782394639918 0  -0.8764440609469509 -0.5746869313612541 0  5.355194559946098 0.01566259380337612 0  -5.69333042954964 -0.5242868300459975 0  1.78125 -0.7320750794491524 0  0.7320750794491525 -3.96875 0  -0.3959075548864684 5.166422468926435 0  -4.770522389068053 -0.2123670725088856 0  -4.714160156249999 -0.69234375 0  -4.273484403713342 -0.278160994327167 0  0.9642590244517505 0.08196089404241463 0  0.3500261717645397 -4.727285205957206 0  0.6740868006020392 -4.765147848348443 0  0.6797550207247084 -1.089747806381148 0  -5.186479934354063 0.3046329157552757 0  -5.263288238215326 -0.3369092276308425 0  -2.433484016245305 0.5442571297016638 0  0.1707808983307866 -3.82363304980935 0  -0.1554012991031027 3.867535742674252 0  4.855508096805579 -0.2283975605264581 0  3.644517238097614 0.5646428152488787 0  0.05699603874439441 -0.6452791208413911 0  -0.3550018917972689 -0.5695324323732931 0  0.6
[...]
<PointData  Scalars="u"> 
<DataArray  type="Float64"  Name="u"  format="ascii">-4.4315185006315860e-01  0.0000000000000000e+00  0.0000000000000000e+00  -4.4079440468461606e-01  -8.8195806284105038e-01  -8.8195806284105038e-01  -4.4110327348414791e-01  0.0000000000000000e+00  0.0000000000000000e+00  -4.4105749382148463e-01  -8.8195806284105038e-01  -8.8195806284105038e-01  -6.7292617817831502e-01  -6.7380343527964714e-01  -6.7281757587872304e-01  -6.7331222333748009e-01  -2.0907818870695252e-01  -2.0935865522367494e-01  -2.0871712640845708e-01  -2.0925564535259583e-01  -5.6873027849787283e-01  -5.6981310263253204e-01  -3.1289051783269750e-01  -3.1304353186724981e-01  -5.6984462226228860e-01  -5.6933668172036722e-01  -7.7686282177468480e-01  -7.7756994710458749e-01  -1.0442724086878337e-01  -1.0436094951788157e-01  -3.1360014157236904e-01  -3.1324781989354555e-01  -7.7810664901505422e-01  -7.7753584954663402e-01  -1.0546667380706370e-01  -1.0440146751189987e-01  -4.4095634772822645e-01  -2.6079617454561160e-01  -3.6381094027607680e-01  -1.5656428050665469e-01  0.0000000000000000e+00  -6.2144985064318392e-01  -2.6078217658720959e-01  -8.8195806284105038e-01  -3.6354762340160451e-01  -6.2142569166459571e-01  -5.1859613205902122e-01  -5.1862507464082719e-01  -7.2562779743574368e-01  -8.8195806284105038e-01  -7.2554497319832378e-01  -1.5653214205011598e-01  0.0000000000000000e+00  -8.0375742983758203e-01  -7.8344102072757063e-02  -8.0379458745550347e-01  -7.8272469823390534e-02  -4.2033607024977443e-01  -4.6171750962739067e-01  -4.2050468954612347e-01  -4.6171616258561449e-01  -8.2973124344975402e-01  -5.2202195685546189e-02  -8.2943635081269773e-01  -5.1850958364498156e-02  -4.3858370582465167e-01  -5.3191415035593312e-02  -8.3015862043432864e-01  -8.2973285036553479e-01  -8.8195806284105038e-01  -5.1818013018462589e-02  0.0000000000000000e+00  -2.0879987421326932e-01  -2.1444135603165485e-01  -2.6077224393777237e-01  -1.5631818796942601e-01  -6.7356487043188829e-01  -6.7928500450292173e-01  -7.2556815597379165e-01  -7.2576804668115003e-01  -5.6943462252541577e-01  -5.6369990190508124e-01  -5.1601718850663481e-01  -5.1580832661052434e-01  -6.7345042241525022e-01  -6.7921364771910431e-01  -7.2557206524354179e-01  -5.6940066334648531e-01  -5.6363311761594748e-01  -7.2509153099753576e-01  -6.2187860431775799e-01  -6.2201736376274608e-01  -5.1598066676789855e-01  -3.6670924935361615e-01  -3.6635308020310681e-01  -3.1277340833206868e-01  -3.1845988580385698e-01  -1.5684060016913290e-01  -2.6083054027211156e-01  -6.2080144209406540e-01  -5.1576789688979774e-01  -6.2089204138104681e-01  -1.5677070626266812e-01  -3.1295528848813164e-01  -3.0722006763003329e-01  -2.6079182906483606e-01  -3.6688086193174013e-01  -1.5657764459564408e-01  -2.0872343468694091e-01  -2.0295165389526765e-01  -3.6666006734861251e-01  -2.6084977140807664e-01  -4.7467589833902113e-01  -4.0447889191669517e-01  -4.7789036845473948e-01  -4.0190579925345482e-01  -7.5161347701233638e-01  -7.5157860171173463e-01  -4.3349875497582888e-02  -7.5166558923495363e-01  -8.8195806284105038e-01  -4.3554053721563962e-01  -3.9102300801760531e-01  -8.8195806284105038e-01  -4.4652357118045521e-01  -1.3050338560229566e-01  -1.3043330503843426e-01  -8.8195806284105038e-01  0.0000000000000000e+00  -4.3352514841694355e-02  -1.2113668481730924e-01  -1.3047762498606619e-01  -7.5153104216186362e-01  -8.0072654655337638e-01  -8.0078723094267290e-01  -4.9154160853381362e-01  -3.9052700293755621e-01  -4.9126409430580670e-01  -8.4179337798391207e-01  -8.4025986932211694e-01  -8.6181076722048680e-02  -8.6066080669204820e-02  -1.7304565235072628e-01  -3.7304425702151679e-02  -3.7183719916179997e-02  -8.3711792774428440e-01  -8.3712421256340441e-01  0.0000000000000000e+00  -3.6770194915099774e-01  -2.4548746107362704e-01  -6.0955767368442204e-01  -6.0610138395365243e-01  -2.7605909582827731e-01  -3.6356805637701195e-01  -5.2906650604666672e-01  -6.3674283944404531e-01  -5.2340497818443699e-01  -2.4894958162410588e-01  -6.3326051247969339e-01  -2.7265915875446950e-01  0.0000000000000000e+00  -1.6282469368215255e-01  -1.7200337561338266e-01  -1.7198622119230741e-01  -7.1183106316249567e-01  -7.1161076182913718e-01  -3.4992663527177048e-01  -5.3118102752838658e-01  -7.6465595231680539e-01  -8.3082495929690803e-02  -1.1643909958529144e-01  -9.1327192957644202e-02  -7.9067132059402323e-01  -7.6564522615995800e-01  -7.9826438044599313e-01  -1.1662635442416795e-01  -2.3472774465868732e-01  -6.4420226454086960e-01  -2.8691232977721448e-01  -5.9865533348402655e-01  -6.4749147229598336e-01  -5.9528178584120095e-01  -4.4118226489071244e-01  -4.4447761226688987e-01  -4.4706161949866652e-01  -5.2748244267195432e-01  -3.5454111809809746e-01  -7.1549519828449581e-01  -7.1542638420667926e-01  -2.8639066944282998e-01  -2.3493770756989207e-01  -4.8778780675704808e-01  -3.9426834335473793e-01  -4.3596717132600393e-01  -4.4701791515856892e-01  -4.2390267825872352e-01  -3.9524654267672704e-01  -4.8674137277021146e-01  -4.4595856137218309e-01  -4.8778314144653490e-01  -3.3382142124231945e-01  -4.9670865934439012e-01  -2.6170436239857563e-02  -8.4797976732686364e-01  -2.5526983583983739e-02  -8.4972390915244966e-01  -3.1887712861892667e-02  -2.6873355793401929e-02  -3.3936537397128108e-01  -3.9440632869670883e-01  -6.5121073141018027e-01  -5.9168853620436990e-01  -2.3098893685919242e-01  -3.3921331973993063e-01  -2.9050458402486090e-01  -5.8731197077135300e-01  -6.4749875849509908e-01  -1.8773076657372470e-01  -5.0427729234696621e-02  -3.9459390224083296e-01  -3.3965546648749745e-01  -5.4952337741887070e-01  -6.9300825588335835e-01  -6.9980099782102934e-01  -3.3268542668676115e-01  -8.5544815305345479e-01  -8.5538292256934600e-01  -2.7933359792569296e-01  -2.4231082567128301e-01  -5.4236700595454923e-01  -1.8230099751328957e-01  -4.5110812741355855e-01  -7.7718787663112976e-01  -2.8157623840784834e-01  -2.4000365788625538e-01  -8.5122339381637424e-01  -6.2254548545765107e-02  -5.5750084500137265e-01  -6.8538415160552346e-01  -6.8517848922218205e-01  -8.6063418121458191e-01  -1.3024475614741188e-01  -6.0799986713951448e-01  -4.2724723756793243e-01  -4.2828109676151549e-01  -4.1956259437824273e-01  -5.0485177442403484e-01  -4.3686162672118001e-01  -3.2600232437435445e-01  -6.8651294077405745e-01  -5.5615978409636480e-01  -1.9564977139239548e-01  -2.0571613027834204e-01  -5.4430192290123025e-01  -3.2129671903307627e-01  -6.9894942211274236e-01  -6.9907183458021627e-01  -2.8548033628659336e-01  -2.3615098720491076e-01  -2.2036444553705706e-01  -5.4233754879089979e-01  -5.5756185667081892e-01  -3.4211286870614149e-01  -1.8882829561024733e-01  -6.4347733943072027e-01  -3.4067128500318311e-01  -4.6042183226310052e-01  -2.8579864657946802e-01  -6.4719910609803688e-01  -5.9558336199452699e-01  -7.8668578686576029e-01  -5.9667341801420049e-01  -6.4619551587430857e-01  -1.7929800567428564e-01  -1.8206521882046769e-01  -8.3373826459033007e-01  -1.8232723247302168e-01  -1.9889492246153379e-01  -6.0155660372377973e-01  -5.0038220323458316e-01  -4.9182831127337318e-01  -1.0852583642779359e-01  -6.5846914608728313e-01  -2.9783095742016236e-01  -5.8429776999670358e-01  -2.2373767323937080e-01  -2.6258675622639827e-02  -2.6330506762296126e-02  -4.0725630910883498e-01  -2.1387053969786018e-01  -6.6951769827481822e-01  -3.1541928863031832e-01  -3.1767936443545486e-01  -5.4027217139091499e-01  -2.4174479285389439e-01  -2.7986452675805767e-01  -3.0624858064971233e-01  -8.0450122760258980e-01  -8.1627689442755080e-01  -5.6752263715524631e-01  -6.7547771441594306e-01  -4.5153009827888779e-01  -6.5925900510561630e-01  -5.8351375329572108e-01  -1.8169462210918716e-01  -5.2473923815210356e-02  -6.9838215215266633e-02  -5.3252800103457440e-02  -7.8372454974069056e-02  -5.9595222645758450e-02  -2.5700087056101144e-02  -2.8110693798529238e-02  -4.1398249570007395e-01  -3.8214532146659763e-01  -4.7085571816134492e-01  -7.9016910015046057e-02  -5.4238246355005226e-01  -1.4352803510525630e-01  -4.3969600486028104e-01  -9.1226942188103941e-02  -3.4048497550922607e-01  -8.0327531130253926e-01  -8.2133508106111419e-01  -8.2235421635043648e-01  -2.8638023304595100e-01  -6.9989333650925567e-01  -5.4227921910582566e-01  -7.7831118078895103e-02  -5.4198551918171056e-01  -8.5672975596480117e-01  -8.5682857881274810e-01  -3.4047949174001207e-01  -5.9583816656779010e-01  -6.4688957126612201e-01  -6.4723006570128205e-01  -5.9446740290175659e-01  -5.9555658934502809e-01  -6.4837014208968524e-01  -7.8373220626286780e-02  -4.8833627182850087e-01  -3.9647499780472550e-01  -4.8814780985523504e-01  -7.0003022746298305e-01  -7.5117993235872804e-01  -1.3043734527841050e-01  -1.3011188059254306e-01  -1.3068377336716097e-01  -3.9424685584227903e-01  -7.5165636197873187e-01  -7.5131255142777142e-01  -8.0483448874765240e-01  -7.5140053141423979e-01  -2.3482872621741974e-01  -2.8719623623052548e-01  -5.4226420939544007e-01  -4.8820885481619530e-01  -2.5128924646238358e-02  -7.0006718566367454e-01  -2.3557032900079600e-01  -2.3516005324359013e-01  -8.0338526408882716e-01  -3.8978199659988511e-01  -4.6725035455480018e-01  -3.7890879191275056e-01  -3.4018881560842434e-01  -4.2597885666360130e-01  -5.3824995216924763e-02  -2.5716479500023141e-02  -3.5244632784258179e-01  -7.1252799814034518e-01  -8.1252004746942019e-01  -1.0272888024583621e-01  -1.0743442355271511e-01  -1.4418532743290011e-01  -4.1108398075930686e-01  -7.7579084097592432e-01  -7.7900696579260253e-01  -4.6998874656007339e-01  -6.7933242272451885e-02  -6.1608690024185460e-02  -2.9775547026958521e-01  -7.0044361787415443e-01  -7.0419163797493445e-01  -9.5600435907183812e-02  -1.9669456159962520e-01  -4.5467317323803458e-01  -4.4769071466669663e-01  -4.3412358490422370e-01  -4.4275339140402709e-01  -1.7268884283295702e-01  -7.9063129125188636e-01  -8.1381791511800716e-01  -8.1333591823903451e-01  -7.7605814127592454e-01  -7.3868048047045642e-01  -1.1743004062773774e-01  -1.1740308501873700e-01  -3.7963621274832371e-01  -4.0803861008956543e-01  -8.5851855831605406e-01  -5.0237641591895343e-01  -4.6709943384211089e-01  -3.7628275366606301e-01  -4.7189505906416546e-01  -5.0574907827035298e-01  -7.3635563207705390e-01  -7.3638572138975755e-01  -4.0713053067807625e-01  -5.1155296449902732e-01  -1.3815275613492276e-01  -7.7324590137062132e-01  -7.4728575051673007e-01  -7.8235733182648404e-01  -7.3852040411380404e-01  -7.6939624787949390e-01  -7.4722014583546692e-01  -4.7164262478286256e-01  -5.0245030686796133e-01  -3.7918698246662208e-01  -3.7289283979962634e-01  -7.2973945571197851e-01  -1.3476999516904895e-01  -1.4996610091554699e-01  -1.3799657643116109e-01  -1.5001938371458590e-01  -1.5270971282896881e-01  -1.0873053780382819e-01  -8.5854802510096995e-01  -7.6464522480191810e-01  -7.3854533618410301e-01  -6.1686766088199445e-02  -8.5999924601051669e-01  -3.8256004444482111e-01  -4.0811483268932647e-01  -4.2775900091755703e-01  -1.8444295717476530e-01  -4.2083189211176808e-01  -7.1264536840440906e-01  -5.2973417932056410e-01  -8.2741358494236306e-01  -7.8878612951275739e-01  -1.5200066291786343e-01  0.0000000000000000e+00  -1.0800605315145677e-01  -8.1683500160358014e-01  -1.6084239837414185e-01  -5.6258767534350229e-01  -5.2969190533322863e-01  -1.7316349764428146e-01  -7.1551530420490983e-01  -8.8195806284105038e-01  -2.2165245992849120e-01  -3.1026712523347444e-01  -4.2805849570063059e-01  -4.6813323358261338e-01  -3.5391899146712030e-01  -6.7072657940699243e-01  -5.7198929632547191e-01  -8.5846836899245993e-01  -8.6167414476719884e-01  -8.6025263017541398e-01  -1.7733689303169686e-01  -1.9794642419677003e-02  -8.1809783231098288e-01  -8.5994050072857309e-01  -7.0708599700632246e-01  -2.0774542215353346e-02  -5.8604342399960241e-01  -6.0833998229504826e-01  -6.3446207637126362e-01  -6.2432180003638793e-01  -6.2030048196142407e-01  -2.6262336732725111e-01  -2.6968656802781932e-01  -2.5891397083654344e-01  -2.5186485586903273e-01  -2.2365663456897933e-01  -2.9784238159898491e-01  -6.5853055828741491e-01  -5.8530023445285417e-01  -9.5330473257507709e-02  -1.0815915825679623e-01  -8.2564440491199476e-01  -2.1244013942031373e-01  -2.4109735009837210e-01  -2.6426584725317692e-01  -6.0079379460576954e-01  -6.4197968624165969e-01  -2.7382526294444609e-01  -5.2973140414718911e-01  -6.2419657276378637e-01  -6.6044569836717149e-01  -5.8233117570939696e-01  -4.5899035619516992e-01  -6.2405843629028779e-01  -2.6214348713564140e-01  -2.5945225078172851e-01  -6.1798931968880166e-01  -3.5285604065348503e-01  -8.8195806284105038e-01  -6.5072620487307636e-02  0.0000000000000000e+00  -1.8740911031558061e-02  -2.1131186311678190e-02  0.0000000000000000e+00  -1.5961017098719407e-01  -1.9373680909158819e-01  -8.3785960794649783e-01  -5.7687945535007468e-01  -6.6611490306246957e-01  -2.9801682389005518e-01  -8.3767541789165378e-01  -7.9987690600528405e-01  -2.9533437493561443e-01  -5.4385893832634735e-01  -1.8340411199647494e-01  -4.3217440665011964e-01  -7.3237489083162322e-01  -5.5054778869415111e-01  -2.2767220515550673e-01  -5.2032704350370662e-01  -7.3255907389495178e-01  -4.8312418715979161e-01  -3.8904367645088062e-01  -3.6255888064541447e-01  -8.2498656235187284e-01  -4.2935336315174294e-01  -5.0271981007839339e-01  -4.9651975874795434e-01  -4.8373020321377919e-01  -4.0593291098629386e-01  -5.0220157484460415e-01  -3.5158002370952163e-01  -3.3981054231688779e-01  -4.4870856444858498e-01  -4.4600478349333089e-01  -4.2398677556269249e-01  -4.1665776533949400e-01  -4.0859612304124449e-01  -3.6074063631337622e-01  -5.2352620065192912e-01  -4.1468840416969754e-01  -4.0975578119491579e-01  -4.6337984006890082e-01  -4.5730279280306718e-01  -4.5003618300797305e-01  -4.2120242871133684e-01  -4.6771238984887864e-01  -4.6467247123280914e-01  -4.4000258806992776e-01  -4.4214769712322916e-01  -4.4061864027275166e-01  -4.1833591277051330e-01  -4.4102910029922171e-01  -4.3459522074675067e-01  -4.3903386525930843e-01  -4.4453515080532530e-01  -4.4993246185284902e-01  -5.0353942086628189e-01  -4.0241526367786595e-01  -5.2701797866337352e-01  -5.4315754059723476e-01  -3.9357187828121576e-01  -3.7927808803529084e-01  -3.4044536838988682e-01  -3.3651313343010381e-01  -4.8661221956323047e-01  -3.5678238054335820e-01  -3.5325943099419488e-01  -3.5092970201201446e-01  -5.0804020632632252e-01  -5.1092223938795323e-01  -3.9514922647425316e-01  -4.3282940870060765e-01  -4.3565348621741962e-01  -4.3389521342964271e-01  -4.4345457892000567e-01  -3.6502618243519064e-01  -3.9396056323320100e-01  -4.4777189530037598e-01  -4.5245038665478626e-01  -5.3198467008222516e-01  -3.9210016172440715e-01  -4.8985810288036685e-01  -4.7973519788581326e-01  -4.8787505302554135e-01  -4.0856069474116424e-01  -5.1326252223605140e-01  -5.3674311656176510e-01  -5.2935638779639793e-01  -5.3133650142880029e-01  -5.2497353132140745e-01  -5.4416035796840256e-01  -5.5036452585211726e-01  -4.5485678104734795e-01  -4.5385642303857360e-01  -5.3035958403465466e-01  -4.8664339593139877e-01  -3.8379629950842425e-01  -4.2319817411679800e-01  -4.4251052185927314e-01  -4.3969544089273166e-01  -4.5619754355438652e-01  -4.5988556076922105e-01  -4.4826466409905513e-01  -4.0514050461272311e-01  -3.9478536005074205e-01  -3.8003261158287427e-01  -4.9724373969976832e-01  -5.1137099685727783e-01  -4.5493907789314419e-01  -4.4222419725317647e-01  -4.8279341269058135e-01  -3.7484504453618300e-01  -3.6743144784268056e-01  -3.5303593209839218e-01  -3.7829314111753176e-01  -3.4829407816640701e-01  -3.3743724207974296e-01  -4.3824485525324036e-01  -4.5705668458279503e-01  -4.6216019613004583e-01  -4.0629096926997615e-01  -3.9694332695754914e-01  -4.1959713400478915e-01  -4.4714385778483084e-01  -4.3457551817746026e-01  -3.7621816846901884e-01  -4.7287992590131428e-01  -4.8145799399423561e-01  -4.3004026647632082e-01  -3.9915700383876246e-01  -4.7390810126460520e-01  -5.2312456621149261e-01  -5.4553940031670389e-01  -5.3062784961823373e-01  -5.0942480160953263e-01  -4.2869281308090601e-01  -4.0996306958246609e-01  -4.7885525582684535e-01  -5.0230832685615334e-01  -4.1131414809351874e-01  -5.0615999746930007e-01  -4.9450642875661532e-01  -3.4105480919661429e-01  -3.2874139453821749e-01  -3.5891869495756201e-01  -4.1801536881772511e-01  -3.6582247883196783e-01  -3.6664571398934181e-01  -3.7249339156200795e-01  -3.8008028835783420e-01  -4.0813727937484023e-01  -4.7704857975522258e-01  -4.4002918788594497e-01  -4.7519036708802320e-01  -4.9955708137998156e-01  -4.7844413350734527e-01  -3.6024970763975778e-01  -3.8393312710240662e-01  -3.7462442923986583e-01  -4.0755443753508158e-01  -4.2557573794811876e-01  -4.3219088369483022e-01  -5.1631216942055369e-01  -5.1735067492256093e-01  -4.3790392070857903e-01  -4.4236431380328334e-01  -4.7520617628141137e-01  -3.7157549346869617e-01  -4.3615583492839688e-01  -4.2988779671851274e-01  -5.3584509601427377e-01  -5.0957552059318301e-01  -5.1150683108368677e-01  -4.7155128303713079e-01  -4.7353235508127939e-01  -3.9337142403895747e-01  -3.7504581489489691e-01  -3.7293511776650690e-01  -4.3167968678482460e-01  -4.2691896261931950e-01  -4.3466303412816076e-01  -4.4111377068674207e-01  -4.4149516511891435e-01  -4.5215765345726933e-01  -4.5596916991332970e-01  -4.2688138388285812e-01  -4.2953534732062232e-01  -4.2139214006555020e-01  -4.1479734469432755e-01  -4.1477334344054584e-01  -4.1092980579058708e-01  -4.0491843338250982e-01  -4.1848588631310729e-01  -4.2259057649379411e-01  -4.6703586726563667e-01  -4.4423567523170687e-01  -4.5281823804179844e-01  -4.5528444794783279e-01  -4.5103141840282257e-01  -4.5517961757605152e-01  -4.2995738768365172e-01  -4.1428493684261297e-01  -4.6512854117198688e-01  -4.6172936895064520e-01  -4.3144779249560261e-01  -4.3672226502624611e-01  -4.3418875900423770e-01  -4.4132482529455325e-01  -4.4786455357260868e-01  -4.4704010880388645e-01  -4.3993658279006387e-01  -4.3868094163612831e-01  -4.4310819669918444e-01  -4.2355727507052404e-01  -4.4559873186914362e-01  -4.3734729337590439e-01  -4.4301454781621491e-01  -4.4436081735672939e-01  -4.4873569464657959e-01  -4.4198443516295371e-01  -4.4133925929692175e-01  -4.3336229221391015e-01  -4.3934924907040868e-01  -4.3450046652316898e-01  -4.3116280443281990e-01  -4.3855114740235102e-01  -4.3606190559821040e-01  -4.3194655571422491e-01  -4.3562655774669090e-01  -4.3569162983155474e-01  -4.5002486282614867e-01  -4.4480388423822265e-01  -4.5109593396075393e-01  -4.4437363368019539e-01  -4.5448499063936265e-01  -4.5834601687881227e-01  -4.6188574631828822e-01  -4.5550733867638155e-01  -4.4942356021400720e-01  -4.1531427876807669e-01  -4.2524338251144317e-01  -4.2766314494062552e-01  -4.4065912746055802e-01  -4.4101704127393254e-01  -4.4403206032593162e-01  -4.4141869711861592e-01  -4.3965964027309767e-01  -4.6646658566707905e-01  -4.5255698335026556e-01  -4.6453288471489240e-01  -4.5571656011983058e-01  -4.4833144398871133e-01  -4.4092613749309145e-01  -4.6662336837175505e-01  -4.5817582495746956e-01  -4.6097596422447562e-01  -4.1529154993190759e-01  -4.2394840237253162e-01  -4.2508148504390286e-01  -4.1743616826735325e-01  -4.4154223385667013e-01  -4.3036256591018335e-01  -4.2385122172737627e-01  -4.2818449560562111e-01  -4.1560511149398066e-01  -4.0926808165131257e-01  -4.3880282400839077e-01  -4.3668920075310214e-01  -4.4102504983747848e-01  -4.3892626587865086e-01  -4.4517065751240298e-01  -4.4153258028809261e-01  -4.3242560382116013e-01  -4.3364785684641516e-01  -4.6757916106133535e-01  -4.6742473561741443e-01  </DataArray> 
</PointData> 
</Piece>
</UnstructuredGrid>
</VTKFile>