<?xml version="1.0"?>
<VTKFile type="UnstructuredGrid"  version="0.1"  >
<UnstructuredGrid>
<Piece  NumberOfPoints="778" NumberOfCells="1401">
<Points>
<DataArray  type="Float64"  NumberOfComponents="3"  format="ascii">1 -1 0  6 -1 0  6 1 0  1 1 0  1 6 0  -1 6 0  -1 1 0  -6 1 0  -6 -1 0  -1 -1 0  -1 -6 0  1 -6 0  1 3.5 0  -1 3.5 0  -1 -3.5 0  1 -3.5 0  3.5 -1 0  3.5 1 0  -3.5 -1 0  -3.5 1 0  -1 -2.25 0  1 -2.25 0  2.25 -1 0  2.25 1 0  -1 2.25 0  1 2.25 0  -1 4.75 0  1 4.75 0  -4.75 -1 0  -4.75 1 0  -2.25 1 0  -2.25 -1 0  1 -4.75 0  -1 -4.75 0  4.75 1 0  4.75 -1 0  0 0 0  -2.875 0 0  -1.625 0 0  -4.125 0 0  -6 0 0  0 2.875 0  2.875 0 0  0 6 0  1.625 0 0  0 -2.875 0  0 -1.625 0  0 1.625 0  0 4.125 0  0 -6 0  0 -4.125 0  4.125 0 0  6 0 0  -0.109375 5.0625 0  -5.0625 -0.109375 0  -0.109375 -5.0625 0  5.0625 0.109375 0  0.8125 -0.1875 0  -0.1875 -0.8125 0  -0.8125 0.1875 0  -0.1875 0.8125 0  1 5.375 0  -5.375 1 0  1 -5.375 0  5.375 -1 0  0.53515625 0.46484375 0  -5.375 -1 0  -1 5.375 0  -1 -5.375 0  -0.5 -6 0  5.375 1 0  6 0.5 0  3.5 0.3046875 0  3.43125 -0.34765625 0  2.875 -1 0  4.125 1 0  0.3046875 3.5 0  -0.34765625 3.56875 0  -1 4.125 0  1 4.125 0  -0.3046875 2.25 0  0.34765625 2.18125 0  1 1.625 0  -1 -1.625 0  -0.3046875 -3.5 0  0.34765625 -3.56875 0  1 -4.125 0  0.3046875 -2.25 0  -0.34765625 -2.18125 0  -1 -4.125 0  -1 -2.875 0  1 -2.875 0  1 -1.625 0  1.625 -1 0  1.625 1 0  2.25 0.3046875 0  2.18125 -0.34765625 0  4.125 -1 0  2.875 1 0  1 2.875 0  -1 1.625 0  -1 2.875 0  -4.125 -1 0  -2.25 0.3046875 0  -2.31875 -0.34765625 0  -2.875 -1 0  -1.625 1 0  -4.125 1 0  -3.5 0.3046875 0  -3.56875 -0.34765625 0  -1.625 -1 0  -2.875 1 0  0.380626321794301 1.06853329530276 0  -1.110819327731092 -0.3739495798319328 0  0.3739495798319328 -1.110819327731092 0  1.151210293219304 0.3991939332620648 0  -0.5 -4.4375 0  0.5 -4.4375 0  5.481553398058253 -0.3712833737864077 0  0.5 4.4375 0  0.5 6 0  -0.522503783594538 -0.3265648647465863 0  -1.3125 0.5 0  -0.5 6 0  0.3265648647465863 -0.522503783594538 0  4.4375 0.5 0  4.4375 -0.5 0  0.5 -6 0  -6 -0.5 0  -5.481553398058253 0.3712833737864077 0  -4.55 -0.4296875 0  -4.4375 0.5 0  -0.5 4.4375 0  0.4792930825242718 5.026881067961165 0  0.4792930825242718 -5.026881067961165 0  -0.5 1.3125 0  1.3125 -0.5 0  -0.5 -1.3125 0  0.25 5.518539952962044 0  0.2125133872612723 -5.500076563152851 0  4.969341874373811 -0.5152550785163683 0  -4.969341874373811 0.5152550785163683 0  3.927189744345589 -0.4712876597840069 0  -5.554036458333333 -0.25 0  5.554036458333333 0.25 0  -0.4690710616438356 -5.462756849315069 0  -0.4690710616438356 5.462756849315069 0  -6 0.5 0  -1.59556436210848 -0.5 0  -3.058421751829955 -0.5 0  -0.5 2.731982421875 0  0.5 2.691578248170045 0  2.691578248170045 -0.5 0  1.641211254104555 0.5 0  0.5 -1.768017578125 0  0.5 -3.058421751829955 0  0.5 1.699267578125 0  3.018017578125 0.5 0  -0.5 -3.018017578125 0  -2.731982421875 0.5 0  6 -0.5 0  -4.050017120925308 -0.5006099332648871 0  -3.940668202764977 0.5371363767281105 0  3.940668202764977 0.5371363767281105 0  0.4517449476047904 3.958458083832335 0  -0.4517449476047904 -3.958458083832335 0  -1.809331797235023 0.5371363767281105 0  -0.4517449476047904 1.791541916167665 0  -0.0546875 4.59375 0  -5.006445312499999 -0.58984375 0  4.605643203883496 -0.04725424757281554 0  4.90625 0.5546875 0  -0.5546875 4.90625 0  0.04725424757281554 -4.605643203883496 0  -0.586116118210531 -4.995821561900013 0  -4.603710222472543 0.04846236095466061 0  -3.1875 0.65234375 0  0.6163907621110913 3.147502300973589 0  2.5625 0.65234375 0  0.6163907621110913 -2.602497699026411 0  -0.637456713551384 3.189259902731882 0  -0.637456713551384 -2.560740097268118 0  -0.34765625 0.34765625 0  -0.639453125 0.708203125 0  0.089630126953125 0.437286376953125 0  -0.4238281249999999 -1.746875 0  1.746875 -0.4238281249999999 0  -0.4238281249999999 4.003125 0  0.4238281249999999 -4.003125 0  -2.5625 -1 0  3.1875 -1 0  -0.09375 -1.21875 0  1.21875 -0.09375 0  0.4020305405760241 -0.1120343241705621 0  -0.6280191027904287 -0.7577505545748082 0  0.90625 -0.59375 0  -1.205500904741459 0.03633725387965409 0  -0.02129048848213058 1.202028574265107 0  -0.1120343241705621 -0.4020305405760241 0  1 1.3125 0  -2.003587563743074 -0.6442361556699288 0  0.6640077663259718 -1.395873598614549 0  5.6875 -1 0  0.6308138580859101 -5.592151086468728 0  -5.6875 -1 0  0.6568032075915271 5.612942566073222 0  5.616530031741774 0.6612875396772174 0  -5.6875 1 0  1.9375 1 0  -1.3125 -1 0  0.1524679547155687 -3.232579139388032 0  0.1524679547155687 2.517420860611968 0  -3.232579139388032 -0.1524679547155687 0  -1.932320553757026 -0.252759244693845 0  2.517420860611968 -0.1524679547155687 0  -0.04776045819569434 -2.464949198504599 0  -0.2420369079104247 3.187693796852321 0  3.751304711039982 -0.1203080877045035 0  -5.397601941771943 -0.609026059866711 0  1.3125 1 0  1.9375 -1 0  -0.6946315101963667 -2.018229242739021 0  -0.6946315101963667 3.731770757260979 0  1 -3.8125 0  2.014364435550335 0.6166648446293641 0  -1 5.6875 0  -1 -5.6875 0  -2.653476149871182 -0.5942957192996303 0  3.096523850128818 -0.5942957192996303 0  1 1.9375 0  -3.8125 -1 0  0.586975531244212 -0.7975955463807081 0  -0.2946248980953088 -4.743710873809568 0  2.625453376770019 0.2814788818359375 0  -3.124546623229981 0.2814788818359375 0  -0.1204856417894853 5.631800603217465 0  5.253862011026742 0.6581468962876398 0  -0.65234375 2.108701557941197 0  0.65234375 3.641298442058803 0  -0.65234375 -3.641298442058803 0  -0.25 -5.744880569758637 0  -4.4375 -1 0  -0.3166212631734941 -2.713595940002554 0  0.6591479224207506 0.1324305912687024 0  0.8660781906552419 0.6468634238104103 0  -0.9887189158197679 0.6452930723873549 0  0.3149351927204296 -1.460971774996065 0  -0.3572852727880474 -0.009629022788047503 0  2.09375 -0.6866724363772454 0  0.6866724363772454 -3.65625 0  0.6866724363772454 2.09375 0  -3.65625 -0.6866724363772454 0  -3.5371337890625 0.65234375 0  -0.1389584113023952 1.944025352615082 0  -2.151744288472698 0.65234375 0  -0.1389584113023951 -3.805974647384918 0  0.1389584113023951 3.805974647384918 0  -2.578772109813904 0.1857224367977529 0  3.171227890186096 0.1857224367977529 0  3.360315647536819 0.65234375 0  0.1857224367977528 -1.921227890186096 0  0.65234375 -2.110315647536819 0  1.894016528727564 0.2415406141485869 0  -3.738232421875 0 0  0.2516875549238616 3.139069895099618 0  -1.913724396854074 0.2011142179916434 0  0.1669456568161915 0.7843410671359501 0  -2.5625 1 0  -1 -3.1875 0  -1 2.5625 0  0.1736601499778735 4.857955663330752 0  -0.1893536587212888 2.577300639071919 0  -0.1893536587212888 -3.172699360928081 0  3.852271904453858 0.206603749322895 0  -3.8125 1 0  -0.1250095034621793 -5.421707592768541 0  3.8125 -1 0  3.617304217264373 -0.6578427703661498 0  0.2630176195580202 -2.636558318495885 0  0.2674330357770522 1.399517071108871 0  0.631726413079416 1.339254523727593 0  4.700571879807737 0.2813704945051134 0  0.7143844363649634 -3.319538455208831 0  2.430461544791169 -0.7143844363649634 0  0.7143844363649634 2.430461544791169 0  -3.319538455208831 -0.7143844363649634 0  5.687045771608623 -0.6520598572553891 0  -5.687045771608623 0.6520598572553891 0  -1.15625 -0.7048248829733235 0  3.438284572973296 -0.01860298867862281 0  -0.03021088078697859 3.451572359862192 0  2.216682837011589 -0.02159585961918548 0  -2.191580885932936 -0.03126387444658879 0  0.1857410764408683 1.895679405349457 0  3.103473238297955 -0.253270943723272 0  -2.646526761702045 -0.253270943723272 0  -2.333137350671861 -0.6791984914172315 0  -1 5.0625 0  -0.6971235589909319 5.213002544375844 0  0.01618705363819947 2.225929180591695 0  0.01618705363819947 -3.524070819408305 0  0.5690054882403073 0.7951310720450595 0  -0.5764940424412852 -3.329579265180942 0  -0.5764940424412852 2.420420734819058 0  3.8125 1 0  -5.372163860234628 0.04365139563106807 0  5.164108319316826 -0.225040894204947 0  -5.361952437854323 0.6744012088984681 0  -5.0625 1 0  5.286835586913878 -0.6616705837083201 0  -5.692815197359722 0.1186699900166531 0  5.663425996156958 -0.07763197815533956 0  -0.9219866027132193 -0.1143045829323572 0  -1.394333629759332 -0.2233077430199216 0  0.09322478991596644 -0.9616596638655462 0  5.0625 -1 0  -0.14412109375 -1.92169189453125 0  -4.28125 -0.7212148987671345 0  0.2649796277366407 0.1735162902120744 0  -4.907855692236596 0.1868230509619793 0  -1.9375 1 0  1 5.0625 0  0.6915124486819284 -5.272938212550202 0  0.683483242673902 5.284948082526911 0  2.5625 -1 0  -1 -3.8125 0  -1 1.9375 0  5.0625 1 0  -1 -1.9375 0  1 5.6875 0  1 -5.6875 0  -1.9375 -1 0  -1 -2.5625 0  -1 3.1875 0  1 -3.1875 0  1 -2.5625 0  1 2.5625 0  1 3.1875 0  -5.0625 -1 0  -1 -1.3125 0  1.3125 -1 0  -1 1.3125 0  -1 3.8125 0  -1 4.4375 0  -4.4375 1 0  4.4375 -1 0  4.4375 1 0  -1.3125 1 0  1 4.4375 0  1 -4.4375 0  -1 -5.0625 0  -1 -4.4375 0  -3.1875 1 0  2.5625 1 0  1 -1.9375 0  1 -1.3125 0  5.6875 1 0  1 3.8125 0  3.1875 1 0  -3.1875 -1 0  1 -5.0625 0  1.35138038998199 0.6675097549271188 0  -0.465625 0.986328125 0  1.435958105992309 0.2563920171199723 0  1.915914614192913 -0.145782394639918 0  -0.8764440609469509 -0.5746869313612541 0  5.355194559946098 0.01566259380337612 0  -5.69333042954964 -0.5242868300459975 0  1.78125 -0.7320750794491524 0  0.7320750794491525 -3.96875 0  -0.3959075548864684 5.166422468926435 0  -4.770522389068053 -0.2123670725088856 0  -4.714160156249999 -0.69234375 0  -4.273484403713342 -0.278160994327167 0  0.9642590244517505 0.08196089404241463 0  0.3500261717645397 -4.727285205957206 0  0.6740868006020392 -4.765147848348443 0  0.6797550207247084 -1.089747806381148 0  -5.186479934354063 0.3046329157552757 0  -5.263288238215326 -0.3369092276308425 0  -2.433484016245305 0.5442571297016638 0  0.1707808983307866 -3.82363304980935 0  -0.1554012991031027 3.867535742674252 0  4.855508096805579 -0.2283975605264581 0  3.644517238097614 0.5646428152488787 0  0.05699603874439441 -0.6452791208413911 0  -0.3550018917972689 -0.5695324323732931 0  0.6
[...]
<PointData  Scalars="u"> 
<DataArray  type="Float64"  Name="u"  format="ascii">-3.5345417847824639e-01  0.0000000000000000e+00  0.0000000000000000e+00  -3.4933070789676918e-01  -6.9727794282986577e-01  -6.9727794282986577e-01  -3.4994224343960340e-01  0.0000000000000000e+00  0.0000000000000000e+00  -3.4974624138835619e-01  -6.9727794282986577e-01  -6.9727794282986577e-01  -5.3359989554932130e-01  -5.3402766977592842e-01  -5.3356150335810004e-01  -5.3387906484007286e-01  -1.6342783893868185e-01  -1.6413869095015052e-01  -1.6348934104882545e-01  -1.6420139287832355e-01  -4.5214927148164413e-01  -4.5266908145851076e-01  -2.4517423708838068e-01  -2.4513480560538062e-01  -4.5257395888003987e-01  -4.5238493707804789e-01  -6.1516724834135605e-01  -6.1557174525407832e-01  -8.2030387761535456e-02  -8.1830486233508581e-02  -2.4545450589683263e-01  -2.4557983673316064e-01  -6.1593554289353880e-01  -6.1579048713407747e-01  -8.2318819986162972e-02  -8.1627667826425623e-02  -3.4697014813296112e-01  -2.0431828943951910e-01  -2.8530499176710961e-01  -1.2265502982023865e-01  0.0000000000000000e+00  -4.9311106905195318e-01  -2.0422073915583441e-01  -6.9727794282986577e-01  -2.8507977539204271e-01  -4.9312200672937923e-01  -4.1186917731561151e-01  -4.1185045579370844e-01  -5.7477381908415248e-01  -6.9727794282986577e-01  -5.7478174440766006e-01  -1.2254066847661242e-01  0.0000000000000000e+00  -6.3602669442286275e-01  -6.1357469560811388e-02  -6.3604505560588420e-01  -6.1277204286621437e-02  -3.3039468799588240e-01  -3.6481583208344187e-01  -3.3052611762563822e-01  -3.6479957362708798e-01  -6.5646110136275448e-01  -4.0514712521501940e-02  -6.5625076643635016e-01  -4.0516806243292569e-02  -3.4543130726221233e-01  -4.1717422559789531e-02  -6.5661800361878142e-01  -6.5637288311992270e-01  -6.9727794282986577e-01  -4.0776991324031314e-02  0.0000000000000000e+00  -1.6346825446652299e-01  -1.6790903625545148e-01  -2.0444374586609390e-01  -1.2234187181170991e-01  -5.3393099488220541e-01  -5.3843592477752866e-01  -5.7470959823291878e-01  -5.7479165205668714e-01  -4.5227708349648066e-01  -4.4778177200932578e-01  -4.1121103497862072e-01  -4.1075800835507270e-01  -5.3392461909831501e-01  -5.3843687893391501e-01  -5.7472292814049508e-01  -4.5230838388351108e-01  -4.4779598768992679e-01  -5.7437146795720107e-01  -4.9327094133831351e-01  -4.9349452914537978e-01  -4.1109490227204709e-01  -2.8682096830996306e-01  -2.8661485898391759e-01  -2.4500443059424901e-01  -2.4948840981068970e-01  -1.2275083626978464e-01  -2.0402823303995651e-01  -4.9277334699690817e-01  -4.1117244241041101e-01  -4.9287271306278013e-01  -1.2283402430083222e-01  -2.4519154302758275e-01  -2.4068167369915019e-01  -2.0417015109189202e-01  -2.8722344028848540e-01  -1.2302383068399815e-01  -1.6353665330041675e-01  -1.5900960808253481e-01  -2.8679154215720065e-01  -2.0420643004779093e-01  -3.7603708033946970e-01  -3.1768146038727968e-01  -3.7877817643284278e-01  -3.1561084127806449e-01  -5.9524275680246419e-01  -5.9519345534187140e-01  -3.3935651286744958e-02  -5.9518739992926861e-01  -6.9727794282986577e-01  -3.4274553236469135e-01  -3.0674666198624806e-01  -6.9727794282986577e-01  -3.5191646222992407e-01  -1.0212888299476816e-01  -1.0210655836834263e-01  -6.9727794282986577e-01  0.0000000000000000e+00  -3.3930128406809729e-02  -9.4916542518593758e-02  -1.0226379565114029e-01  -5.9514445285004502e-01  -6.3367617769526396e-01  -6.3371821388394256e-01  -3.9060158657077010e-01  -3.0641955691064776e-01  -3.9042503931105638e-01  -6.6583188887105871e-01  -6.6463321486133076e-01  -6.7417515968291861e-02  -6.7412354916433298e-02  -1.3546750129507926e-01  -2.9204510642159006e-02  -2.9150593485291924e-02  -6.6215585763676654e-01  -6.6216324715337993e-01  0.0000000000000000e+00  -2.8822135136771393e-01  -1.9233455001466859e-01  -4.8378955941044360e-01  -4.8113254244570508e-01  -2.1621196739803700e-01  -2.8491403026283935e-01  -4.2063926069196023e-01  -5.0511293539346525e-01  -4.1612205364662191e-01  -1.9488324592924375e-01  -5.0244723098649136e-01  -2.1363313908545281e-01  0.0000000000000000e+00  -1.2755875270380043e-01  -1.3484640668166928e-01  -1.3474522338788386e-01  -5.6393399739203187e-01  -5.6388623981429242e-01  -2.7410943302124358e-01  -4.2217800905936820e-01  -6.0539379485935030e-01  -6.5154719576158163e-02  -9.1138353120749069e-02  -7.1506525004958049e-02  -6.2583803233738400e-01  -6.0619516465403789e-01  -6.3170199715831410e-01  -9.1348132434589113e-02  -1.8383501883453274e-01  -5.1095619562278183e-01  -2.2465155970452469e-01  -4.7534791619414885e-01  -5.1362039874690535e-01  -4.7265364513644514e-01  -3.4732893532711229e-01  -3.5070350322622035e-01  -3.5222130892964143e-01  -4.1933050798877908e-01  -2.7785660006465379e-01  -5.6682929743567601e-01  -5.6683406910748713e-01  -2.2446204171191189e-01  -1.8391276839054363e-01  -3.8675702856499256e-01  -3.0950064149520762e-01  -3.4296683792113514e-01  -3.5284130256347429e-01  -3.3379355382540765e-01  -3.1030904403692156e-01  -3.8577073877296553e-01  -3.5127666220882187e-01  -3.9201524282267691e-01  -2.6143297306884705e-01  -3.9508459155029518e-01  -2.0953432141636679e-02  -6.7066391902973554e-01  -2.0083321055410094e-02  -6.7200576761110398e-01  -2.5076857207398249e-02  -2.1193907339816992e-02  -2.6547217719973898e-01  -3.0769236025890795e-01  -5.1647440691030400e-01  -4.6975533557804794e-01  -1.8096865125162645e-01  -2.6582927200580952e-01  -2.2755121959658209e-01  -4.6635758288020784e-01  -5.1355140031694091e-01  -1.4695781612229156e-01  -3.9495217294084346e-02  -3.0795626938712789e-01  -2.6578921175316922e-01  -4.3702467194184624e-01  -5.4913080939982406e-01  -5.5452123809323450e-01  -2.6058631700284557e-01  -6.7639360447293806e-01  -6.7641733392278169e-01  -2.1885984836928873e-01  -1.8978432895218048e-01  -4.3154673185443876e-01  -1.4292288559335553e-01  -3.5640243135708727e-01  -6.1522167131961114e-01  -2.2052857445743429e-01  -1.8804979086759380e-01  -6.7322076141462328e-01  -4.8810232572725126e-02  -4.4306973743090017e-01  -5.4323252639266750e-01  -5.4312703647457683e-01  -6.8059072437583579e-01  -1.0201522688452881e-01  -4.8261429630234576e-01  -3.3596210005879990e-01  -3.3677845308644400e-01  -3.2999160338554789e-01  -4.0097611945654010e-01  -3.4365746430068372e-01  -2.5534995422839885e-01  -5.4416765873305706e-01  -4.4205043611864742e-01  -1.5331315050577185e-01  -1.6119348646679840e-01  -4.3238068034834320e-01  -2.5153818981744952e-01  -5.5392290480635731e-01  -5.5393501332432460e-01  -2.2363140419517888e-01  -1.8487217721493526e-01  -1.7237264991709128e-01  -4.3089245638381191e-01  -4.4316922601570347e-01  -2.6810174809866616e-01  -1.4792953366989950e-01  -5.1037249607957580e-01  -2.6695311663833354e-01  -3.6369736811628117e-01  -2.2416243928859253e-01  -5.1323880518141041e-01  -4.7297506523407379e-01  -6.2266151178379614e-01  -4.7368698662035691e-01  -5.1254198653264527e-01  -1.4032815829887788e-01  -1.4272246988290024e-01  -6.5949651073982163e-01  -1.4276862207672858e-01  -1.5572092999425430e-01  -4.7754976348486960e-01  -3.9727830719021107e-01  -3.9078947652382040e-01  -8.4976698640864601e-02  -5.2223035006930296e-01  -2.3331380097246901e-01  -4.6399139162239045e-01  -1.7526196337125843e-01  -2.0591713964701316e-02  -2.0618739388365507e-02  -3.1973443626348286e-01  -1.6742949998435222e-01  -5.3077721832562985e-01  -2.4711970650065024e-01  -2.4891333140720862e-01  -4.2921509670970370e-01  -1.8929608736721626e-01  -2.1925407950123502e-01  -2.3992338366608928e-01  -6.3659593373366485e-01  -6.4569485213818745e-01  -4.5072769094153375e-01  -5.3551300735375063e-01  -3.5648591170558624e-01  -5.2287519014023631e-01  -4.6335667308211503e-01  -1.4234616489265128e-01  -4.1094870580094971e-02  -5.4658631226924041e-02  -4.1639254321667873e-02  -6.1264665243228211e-02  -4.6615739035102272e-02  -2.0101310214646267e-02  -2.1994688995694827e-02  -3.2527465242342674e-01  -2.9984818813637804e-01  -3.7252147914663225e-01  -6.1698511162580502e-02  -4.3092373409682944e-01  -1.1242687487909919e-01  -3.4599064280611957e-01  -7.1458254733683765e-02  -2.6598485930682170e-01  -6.3584053915178118e-01  -6.4987826211288768e-01  -6.5065063924354050e-01  -2.2439917581803429e-01  -5.5492130098988457e-01  -4.3134102217145065e-01  -6.1008226766257001e-02  -4.3153566463513998e-01  -6.7725375838731383e-01  -6.7736195457885273e-01  -2.6628008623505078e-01  -4.7321368942234254e-01  -5.1319521543329738e-01  -5.1348023493041084e-01  -4.7219491721681889e-01  -4.7272641724739140e-01  -5.1414332095721638e-01  -6.1493490231835854e-02  -3.9251635134068186e-01  -3.1044422568867847e-01  -3.9268980879433013e-01  -5.5469304161464372e-01  -5.9494983960714776e-01  -1.0203244328263478e-01  -1.0197418849832929e-01  -1.0220039760426299e-01  -3.0755877194353226e-01  -5.9516459315601278e-01  -5.9507800411657252e-01  -6.3665064222585088e-01  -5.9501278833778881e-01  -1.8383664786350271e-01  -2.2472208537677182e-01  -4.3155032802848659e-01  -3.9188263572761028e-01  -1.9994541018479195e-02  -5.5460845152656535e-01  -1.8415450780039919e-01  -1.8411121203768202e-01  -6.3580047460816458e-01  -3.0583151585670787e-01  -3.6993801723500086e-01  -2.9722912390905465e-01  -2.6661224621476043e-01  -3.3542113557144343e-01  -4.2151836397973125e-02  -2.0212381251523210e-02  -2.7600519377589267e-01  -5.6452312175521002e-01  -6.4292269260752388e-01  -8.0462889152725717e-02  -8.4128929152979745e-02  -1.1294558544192476e-01  -3.2297457452889422e-01  -6.1413160082239260e-01  -6.1665694992810705e-01  -3.7375983802469731e-01  -5.3222821206539823e-02  -4.8293672312364110e-02  -2.3327638555176070e-01  -5.5508483582937729e-01  -5.5795762405922922e-01  -7.4802288160119773e-02  -1.5396968281361165e-01  -3.5873194375331308e-01  -3.5294286389910112e-01  -3.4172454515677109e-01  -3.4853279381776692e-01  -1.3528754446485114e-01  -6.2581535046851844e-01  -6.4392975948166786e-01  -6.4354697710499875e-01  -6.1433198884913776e-01  -5.8498429831387966e-01  -9.1778740310369478e-02  -9.1930445414654657e-02  -2.9739135766164265e-01  -3.2060926906007697e-01  -6.7899236886788072e-01  -3.9881887130002025e-01  -3.7129858063136700e-01  -2.9515271638145096e-01  -3.7372619806257829e-01  -4.0165599959267517e-01  -5.8324583271317154e-01  -5.8322553416671030e-01  -3.1978929913137133e-01  -4.0741467059509612e-01  -1.0823475585281597e-01  -6.1216699420536613e-01  -5.9182533438630669e-01  -6.1925189956942339e-01  -5.8494535762938993e-01  -6.0918650339596137e-01  -5.9170302115105666e-01  -3.7610867619743904e-01  -4.0023241689387451e-01  -2.9745340487112654e-01  -2.9187336756321880e-01  -5.7816778594327700e-01  -1.0548389462490429e-01  -1.1744912928535331e-01  -1.0803224980501470e-01  -1.1757507933114535e-01  -1.1954540614346373e-01  -8.5173678594674396e-02  -6.7900647690010052e-01  -6.0538434187705437e-01  -5.8499825535532202e-01  -4.8316629474990921e-02  -6.8011108701813971e-01  -2.9988817263401840e-01  -3.2021178884231227e-01  -3.3632648220330535e-01  -1.4446620617365577e-01  -3.3091392207449144e-01  -5.6447601261092195e-01  -4.2143575533704353e-01  -6.5454493806386349e-01  -6.2431314065462806e-01  -1.1896609225260658e-01  0.0000000000000000e+00  -8.4585799989764093e-02  -6.4613033637085315e-01  -1.2599230784758253e-01  -4.4688917982713694e-01  -4.2151621367957831e-01  -1.3565822800636682e-01  -5.6678168915515736e-01  -6.9727794282986577e-01  -1.7346519358924192e-01  -2.4296388995913709e-01  -3.3694526573760464e-01  -3.7218824136098666e-01  -2.7715477231652780e-01  -5.3173033613656717e-01  -4.5455868969149815e-01  -6.7888791483990540e-01  -6.8138819153587982e-01  -6.8030207832737000e-01  -1.3878122370863374e-01  -1.5464966863058670e-02  -6.4728766816253813e-01  -6.8003795149062085e-01  -5.6030297997742662e-01  -1.6231708470398731e-02  -4.6536476482556399e-01  -4.8289261009419154e-01  -5.0326227828351833e-01  -4.9541280764750412e-01  -4.9220632769444378e-01  -2.0568627858116303e-01  -2.1122203390382965e-01  -2.0282091527264817e-01  -1.9731705469049815e-01  -1.7523272442661045e-01  -2.3329458525916955e-01  -5.2221043457575100e-01  -4.6477517452466915e-01  -7.4494118527473424e-02  -8.4641683833045989e-02  -6.5317557677182825e-01  -1.6643410613823276e-01  -1.8864824092464783e-01  -2.0689588492049638e-01  -4.7689820743591238e-01  -5.0926162568990008e-01  -2.1449163887285808e-01  -4.2162122405616798e-01  -4.9524908439667376e-01  -5.2358597922624439e-01  -4.6246187827266116e-01  -3.6264247256824828e-01  -4.9524970787062567e-01  -2.0537668440765958e-01  -2.0317101130307250e-01  -4.9034745234311433e-01  -2.7618620309191599e-01  -6.9727794282986577e-01  -5.0768691726928931e-02  0.0000000000000000e+00  -1.4658510699619189e-02  -1.6580942141619745e-02  0.0000000000000000e+00  -1.2494315424552536e-01  -1.5162891430097242e-01  -6.6278649936458101e-01  -4.5823971797575858e-01  -5.2814323885324066e-01  -2.3343871048302373e-01  -6.6259856991628996e-01  -6.3296685334759906e-01  -2.3138242782168428e-01  -4.3221158483596633e-01  -1.4368492226216534e-01  -3.3992239404472890e-01  -5.8014994410626830e-01  -4.3753147861267427e-01  -1.7827266934658131e-01  -4.1336430423172404e-01  -5.8017900768832475e-01  -3.8307587203814569e-01  -3.0519400122484108e-01  -2.8425198855862543e-01  -6.5266649053765569e-01  -3.3763553220990505e-01  -3.9896304542816358e-01  -3.9392155829028774e-01  -3.8334078294411589e-01  -3.1900402793491217e-01  -3.9854007582870843e-01  -2.7560160912016535e-01  -2.6632755111343004e-01  -3.5400162204727309e-01  -3.5353574404530747e-01  -3.3329515750659511e-01  -3.2740990537155168e-01  -3.2089223165047676e-01  -2.8282399569143946e-01  -4.1596481654313761e-01  -3.2635884227513884e-01  -3.2186746612506278e-01  -3.6647533842265556e-01  -3.6130136012673569e-01  -3.5499310698186420e-01  -3.3107169357079896e-01  -3.7020325241455099e-01  -3.6769000327391205e-01  -3.4671770529256885e-01  -3.4816231594124175e-01  -3.4676829409225024e-01  -3.2895714665829257e-01  -3.4706362077684627e-01  -3.4185853308635328e-01  -3.4560616777785164e-01  -3.5022034271331504e-01  -3.5479103126141537e-01  -4.0140927953363037e-01  -3.1466422820455414e-01  -4.1953188766625549e-01  -4.3183924659654488e-01  -3.0826358698056405e-01  -2.9753234976273224e-01  -2.6672399617585923e-01  -2.6366867534177235e-01  -3.8717098337962808e-01  -2.7941182126638198e-01  -2.7679063322051456e-01  -2.7495581853532258e-01  -4.0429557134255178e-01  -4.0672312948395228e-01  -3.1008937880838355e-01  -3.4040757458808807e-01  -3.4275719695517559e-01  -3.4213881114875466e-01  -3.5039898983320389e-01  -2.8619429163729049e-01  -3.0924860479943939e-01  -3.5282817860741794e-01  -3.5687903282806632e-01  -4.2274407169129069e-01  -3.0779096636358305e-01  -3.8870807480652403e-01  -3.8115023284122634e-01  -3.8842190003910820e-01  -3.1985640811305638e-01  -4.0842168958355024e-01  -4.2676896292458533e-01  -4.2049114824906364e-01  -4.2204841541378468e-01  -4.1699665885660064e-01  -4.3253446314750404e-01  -4.3729218763197752e-01  -3.5997710184226950e-01  -3.5800782554555011e-01  -4.2130919405244360e-01  -3.8667215121834481e-01  -3.0097971228853410e-01  -3.3269583170442080e-01  -3.4829121865132795e-01  -3.4594329635786220e-01  -3.6040625411682115e-01  -3.6354971420078608e-01  -3.5531981234529836e-01  -3.1828972577723380e-01  -3.0961815695867584e-01  -2.9820220697770872e-01  -3.9474963845104499e-01  -4.0638347398792984e-01  -3.5929330085657629e-01  -3.4805514095684953e-01  -3.8333141661982356e-01  -2.9375008916221679e-01  -2.8777945112140468e-01  -2.7677469392415305e-01  -2.9618787179121742e-01  -2.7279496588307495e-01  -2.6435225253265898e-01  -3.4526035116121268e-01  -3.6083824455616637e-01  -3.6515375298877584e-01  -3.1917469771800822e-01  -3.1159812629595224e-01  -3.2978401813523012e-01  -3.5382926101485601e-01  -3.4243998229881656e-01  -2.9495467645336765e-01  -3.7418753738357113e-01  -3.8152613242089967e-01  -3.3818295947447718e-01  -3.1344436153501704e-01  -3.7513936427299871e-01  -4.1557960802021210e-01  -4.3355439656240230e-01  -4.2215084844610490e-01  -4.0498720092792445e-01  -3.3654906208576724e-01  -3.1676284659837706e-01  -3.7978581036356374e-01  -4.0035257486036502e-01  -3.2222834437662057e-01  -4.0341268113213258e-01  -3.9229884723087860e-01  -2.6731724742054963e-01  -2.5759706239003022e-01  -2.8139457058046163e-01  -3.2850778973029804e-01  -2.8651675183598097e-01  -2.8737781383760930e-01  -2.9205589110869090e-01  -2.9688246100112042e-01  -3.2056821568231153e-01  -3.8269875063282760e-01  -3.4637016201833826e-01  -3.8209173651184797e-01  -3.9831525024311926e-01  -3.8512058257047971e-01  -2.8243919079632379e-01  -3.0068530620267953e-01  -2.9325851967569444e-01  -3.2023046360632185e-01  -3.3464948223505075e-01  -3.4004960900092907e-01  -4.1100344795809907e-01  -4.1149343806311839e-01  -3.4452769534341837e-01  -3.4855131469943768e-01  -3.8148276559259481e-01  -2.9102087846507996e-01  -3.4335681029075515e-01  -3.3817125458987024e-01  -4.2583768485539764e-01  -4.0459600479797514e-01  -4.0640081721280363e-01  -3.7324308534347561e-01  -3.7473293387563311e-01  -3.0881854136875764e-01  -2.9408879515847647e-01  -2.9251237918583761e-01  -3.3950443806751124e-01  -3.3569196531489265e-01  -3.4199027880361194e-01  -3.4752476409336014e-01  -3.4812625630195126e-01  -3.5679204883760562e-01  -3.6040439581281242e-01  -3.3566929591189265e-01  -3.3773654154346000e-01  -3.3119023551239424e-01  -3.2593473241005499e-01  -3.2592582438169765e-01  -3.2283359818089397e-01  -3.1805795973940693e-01  -3.2889693342596438e-01  -3.3217132832221208e-01  -3.6943514850401782e-01  -3.5037809599289715e-01  -3.5717687990945801e-01  -3.5946849292908928e-01  -3.5609639212293620e-01  -3.5976918511212108e-01  -3.3839317958004622e-01  -3.2553085777038843e-01  -3.6775368241912282e-01  -3.6511764883316455e-01  -3.3958239268621654e-01  -3.4446309569095673e-01  -3.4248153611717042e-01  -3.4754834438778659e-01  -3.5334487313708940e-01  -3.5226562945226858e-01  -3.4613486023137774e-01  -3.4529612151929856e-01  -3.4886447409767379e-01  -3.3302164662109607e-01  -3.5095605386232293e-01  -3.4398353752255462e-01  -3.4882128434917697e-01  -3.5023574131039870e-01  -3.5378573360351312e-01  -3.4815112717739244e-01  -3.4745478278068187e-01  -3.4094946301724310e-01  -3.4581991676217755e-01  -3.4173407942967554e-01  -3.3911940689834819e-01  -3.4506752987279354e-01  -3.4306794327715850e-01  -3.3973769562266831e-01  -3.4307661673003653e-01  -3.4303311938028613e-01  -3.5475933130074588e-01  -3.5029034080669558e-01  -3.5574221044352033e-01  -3.4998167170452055e-01  -3.5872477013402865e-01  -3.6193271573068447e-01  -3.6483754373534488e-01  -3.5953905127703090e-01  -3.5425907657909583e-01  -3.2633121195273851e-01  -3.3429869416180424e-01  -3.3629546643021385e-01  -3.4671630595932706e-01  -3.4703034367114871e-01  -3.4959302926681546e-01  -3.4738043976841543e-01  -3.4595791835678441e-01  -3.6898614863862084e-01  -3.5757633706188485e-01  -3.6737441576507690e-01  -3.6042702014678196e-01  -3.5368270555705056e-01  -3.4693521579365555e-01  -3.6895482552784509e-01  -3.6176944743344530e-01  -3.6420774062918759e-01  -3.2634878038378612e-01  -3.3331736972817749e-01  -3.3422471952389343e-01  -3.2804709473830840e-01  -3.4857469825346532e-01  -3.3869261265011114e-01  -3.3362654395341096e-01  -3.3688884262372709e-01  -3.2664151041734230e-01  -3.2159226395198448e-01  -3.4548908586442728e-01  -3.4364711243142354e-01  -3.4709106469942430e-01  -3.4532625876210871e-01  -3.5077024620598474e-01  -3.4778857025027615e-01  -3.4032380128972772e-01  -3.4119870529101221e-01  -3.6967627058269270e-01  -3.6959175456869753e-01  </DataArray> 
</PointData> 
</Piece>
</UnstructuredGrid>
</VTKFile>