<?xml version="1.0"?>
<VTKFile type="UnstructuredGrid"  version="0.1"  >
<UnstructuredGrid>
<Piece  NumberOfPoints="338" NumberOfCells="578">
<Points>
<DataArray  type="Float64"  NumberOfComponents="3"  format="ascii">1 -1 0  6 -1 0  6 1 0  1 1 0  1 6 0  -1 6 0  -1 1 0  -6 1 0  -6 -1 0  -1 -1 0  -1 -6 0  1 -6 0  1 3.5 0  -1 3.5 0  -1 -3.5 0  1 -3.5 0  3.5 -1 0  3.5 1 0  -3.5 -1 0  -3.5 1 0  -1 -2.25 0  1 -2.25 0  2.25 -1 0  2.25 1 0  -1 2.25 0  1 2.25 0  -1 4.75 0  1 4.75 0  -4.75 -1 0  -4.75 1 0  -2.25 1 0  -2.25 -1 0  1 -4.75 0  -1 -4.75 0  4.75 1 0  4.75 -1 0  0 0 0  -2.875 0 0  -1.625 0 0  -4.125 0 0  -6 0 0  0 2.875 0  2.875 0 0  0 6 0  1.625 0 0  0 -2.875 0  0 -1.625 0  0 1.625 0  0 4.125 0  0 -6 0  0 -4.125 0  4.125 0 0  6 0 0  -0.109375 5.0625 0  -5.0625 -0.109375 0  -0.109375 -5.0625 0  5.0625 0.109375 0  0.8125 -0.1875 0  -0.1875 -0.8125 0  -0.8125 0.1875 0  -0.1875 0.8125 0  1 5.375 0  -5.375 1 0  1 -5.375 0  5.375 -1 0  0.53515625 0.46484375 0  -5.375 -1 0  -1 5.375 0  -1 -5.375 0  -0.5 -6 0  5.375 1 0  6 0.5 0  3.5 0.3046875 0  3.43125 -0.34765625 0  2.875 -1 0  4.125 1 0  0.3046875 3.5 0  -0.34765625 3.56875 0  -1 4.125 0  1 4.125 0  -0.3046875 2.25 0  0.34765625 2.18125 0  1 1.625 0  -1 -1.625 0  -0.3046875 -3.5 0  0.34765625 -3.56875 0  1 -4.125 0  0.3046875 -2.25 0  -0.34765625 -2.18125 0  -1 -4.125 0  -1 -2.875 0  1 -2.875 0  1 -1.625 0  1.625 -1 0  1.625 1 0  2.25 0.3046875 0  2.18125 -0.34765625 0  4.125 -1 0  2.875 1 0  1 2.875 0  -1 1.625 0  -1 2.875 0  -4.125 -1 0  -2.25 0.3046875 0  -2.31875 -0.34765625 0  -2.875 -1 0  -1.625 1 0  -4.125 1 0  -3.5 0.3046875 0  -3.56875 -0.34765625 0  -1.625 -1 0  -2.875 1 0  0.380626321794301 1.06853329530276 0  -1.110819327731092 -0.3739495798319328 0  0.3739495798319328 -1.110819327731092 0  1.151210293219304 0.3991939332620648 0  -0.5 -4.4375 0  0.5 -4.4375 0  5.481553398058253 -0.3712833737864077 0  0.5 4.4375 0  0.5 6 0  -0.522503783594538 -0.3265648647465863 0  -1.3125 0.5 0  -0.5 6 0  0.3265648647465863 -0.522503783594538 0  4.4375 0.5 0  4.4375 -0.5 0  0.5 -6 0  -6 -0.5 0  -5.481553398058253 0.3712833737864077 0  -4.55 -0.4296875 0  -4.4375 0.5 0  -0.5 4.4375 0  0.4792930825242718 5.026881067961165 0  0.4792930825242718 -5.026881067961165 0  -0.5 1.3125 0  1.3125 -0.5 0  -0.5 -1.3125 0  0.25 5.518539952962044 0  0.2125133872612723 -5.500076563152851 0  4.969341874373811 -0.5152550785163683 0  -4.969341874373811 0.5152550785163683 0  3.927189744345589 -0.4712876597840069 0  -5.554036458333333 -0.25 0  5.554036458333333 0.25 0  -0.4690710616438356 -5.462756849315069 0  -0.4690710616438356 5.462756849315069 0  -6 0.5 0  -1.59556436210848 -0.5 0  -3.058421751829955 -0.5 0  -0.5 2.731982421875 0  0.5 2.691578248170045 0  2.691578248170045 -0.5 0  1.641211254104555 0.5 0  0.5 -1.768017578125 0  -0.5 -3.018017578125 0  0.5 -3.058421751829955 0  0.5 1.699267578125 0  3.018017578125 0.5 0  -2.731982421875 0.5 0  6 -0.5 0  -4.050017120925308 -0.5006099332648871 0  -3.940668202764977 0.5371363767281105 0  3.940668202764977 0.5371363767281105 0  0.4517449476047904 3.958458083832335 0  -0.4517449476047904 -3.958458083832335 0  -1.809331797235023 0.5371363767281105 0  -0.4517449476047904 1.791541916167665 0  5.199000987787356 0.5616169779693487 0  -0.0546875 4.59375 0  -5.006445312499999 -0.58984375 0  4.605643203883496 -0.04725424757281554 0  -0.5546875 4.90625 0  0.04725424757281554 -4.605643203883496 0  -0.586116118210531 -4.995821561900013 0  -4.603710222472543 0.04846236095466061 0  -3.1875 0.65234375 0  0.6163907621110913 3.147502300973589 0  2.5625 0.65234375 0  0.6163907621110913 -2.602497699026411 0  -0.637456713551384 3.189259902731882 0  -0.637456713551384 -2.560740097268118 0  -0.34765625 0.34765625 0  -0.639453125 0.708203125 0  0.089630126953125 0.437286376953125 0  -0.4238281249999999 -1.746875 0  1.746875 -0.4238281249999999 0  -0.4238281249999999 4.003125 0  0.4238281249999999 -4.003125 0  -2.5625 -1 0  3.1875 -1 0  -0.09375 -1.21875 0  1.21875 -0.09375 0  0.4020305405760241 -0.1120343241705621 0  -0.6280191027904287 -0.7577505545748082 0  0.90625 -0.59375 0  -1.205500904741459 0.03633725387965409 0  -0.02129048848213058 1.202028574265107 0  -0.1120343241705621 -0.4020305405760241 0  1 1.3125 0  -1.9375 -1 0  0.6640077663259718 -1.395873598614549 0  5.6875 -1 0  -5.6875 1 0  -5.616530031741774 -0.6612875396772174 0  0.6308138580859101 -5.592151086468728 0  0.6568032075915271 5.612942566073222 0  5.616530031741774 0.6612875396772174 0  1.9375 1 0  -1.3125 -1 0  0.1524679547155687 -3.232579139388032 0  0.1524679547155687 2.517420860611968 0  -3.232579139388032 -0.1524679547155687 0  -1.924435162713414 -0.2684945868213217 0  2.517420860611968 -0.1524679547155687 0  -0.04776045819569434 -2.464949198504599 0  -0.2420369079104247 3.187693796852321 0  3.751304711039982 -0.1203080877045035 0  1.3125 1 0  2.018229242739021 -0.6946315101963667 0  -0.6946315101963667 -2.018229242739021 0  0.6946315101963667 -3.731770757260979 0  -0.6946315101963667 3.731770757260979 0  4.826626692646776 0.4272902082348413 0  2.09375 0.65234375 0  -2.09375 -0.6537383046407186 0  -1 5.6875 0  -1 -5.6875 0  3.096523850128818 -0.5942957192996303 0  -2.653476149871182 -0.5942957192996303 0  0.673828125 0.138671875 0  -0.25 -1.46875 0  -1.367909663865546 -0.1869747899159664 0  1.789355627052277 0.75 0  -0.25 1.46875 0  -1.61028218105424 -0.25 0  0.5695324323732931 -0.355001891797269 0  -0.8694192152607606 -0.5658500672033705 0  -1.055409663865546 -0.6869747899159664 0  -1.211659663865546 -0.6869747899159664 0  -0.9616596638655462 -0.09322478991596639 0  0.767578125 0.732421875 0  0.0965631608971505 0.9405166476513802 0  0.235128224373713 0.7529098361279427 0  0.09322478991596639 -0.9616596638655462 0  1.0625 -0.34375 0  -0.355001891797269 -0.5695324323732931 0  -1 1.3125 0  -0.9759765625 0.6041015625 0  -0.173828125 0.173828125 0  -0.435080016797269 0.01054569262670685 0  -0.267578125 0.580078125 0  0.1903131608971505 1.34676664765138 0  -1 -1.3125 0  -0.75 -1.46875 0  -0.7119140625 -1.6859375 0  1.15625 -0.75 0  1.3125 -1 0  1.46875 -0.25 0  1.9375 0.15234375 0  1.46875 -0.75 0  1.6859375 -0.7119140625 0  -0.75 1.46875 0  -0.15234375 1.9375 0  -1.46875 0.75 0  -1.3125 1 0  -0.7259765625 0.4478515625 0  0.75 1.5058837890625 0  0.6903131608971504 1.19051664765138 0  0.3320038831629859 -1.510436799307274 0  0.75 -1.6965087890625 0  0.75 -2.0090087890625 0  0.65234375 -2.25 0  -0.261251891797269 -0.1632824323732932 0  -1.9375 0.15234375 0  -1.46875 0.25 0  0.06953243237329315 -0.667501891797269 0  -0.34375 -1.0625 0  -1.76653218105424 -0.75 0  1.231855146609652 0.6995969666310324 0  1.388105146609652 0.1995969666310324 0  0.15234375 -1.9375 0  0.173828125 1.903125 0  -0.5697265625 1.0103515625 0  -0.173828125 -1.903125 0  1.903125 -0.173828125 0  0.1869747899159664 -1.367909663865546 0  0.9818551466096518 0.1058469666310324 0  0.2458303337645746 0.1626260263912815 0  -0.75 -1.15625 0  0.6400997899159664 -0.8522846638655462 0  -1.0625 0.34375 0  -0.34375 1.0625 0  0.144998108202731 -0.2570324323732931 0  -1.84465718105424 -0.5768691523203593 0  1 -1.3125 0  0.6869747899159664 -1.055409663865546 0  -1.45403218105424 -0.75 0  1.476855627052277 0.75 0  0.8431832716096518 0.4320188416310324 0  0.607265270288012 -0.149767162085281 0  0.468593395288012 0.176404712914719 0  0.859375 -0.390625 0  0.6164074323732931 -0.558126891797269 0  0.3642977026613052 -0.3172690538825501 0  -0.8166615556628152 -0.3502572222892595 0  -0.5752614431924834 -0.5421577096606973 0  -1.009000452370729 0.111918626939827 0  -0.667501891797269 -0.06953243237329315 0  0.4578912858971505 0.7666885226513802 0  -0.1043952442410653 1.007264287132553 0  -0.0489349365234375 0.6248931884765625 0  0.3123931884765625 0.4510650634765625 0  0.0238141121868565 0.7827049180639714 0  0.307877273084007 0.9107215657153516 0  0.3502572222892595 -0.8166615556628152 0  -0.140625 -1.015625 0  -0.4077595513952144 -0.7851252772874041 0  -0.149767162085281 -0.607265270288012 0  -0.3172690538825501 -0.3642977026613052 0  0.0448150634765625 0.2186431884765625 0  -0.1290130615234375 0.3924713134765625 0  -0.580078125 0.267578125 0  -0.2175400083986345 0.005272846313353424 0  -0.3913681333986345 0.1791009713133534 0  -0.4134765625 0.7603515625 0  -0.4935546875 0.5279296875 0  -0.89423828125 0.39580078125 0  -0.8077148437499999 0.6561523437500001 0  -0.8197265625 0.8541015625 0  -0.05601716208528105 -0.2010152702880121 0  -0.4787919001959035 -0.1580095860599397 0  0.1072652702880121 -0.4622671620852811 0  -0.04713760504201681 -0.8870798319327731 0  0.2098948273312763 -0.7420817237300421 0  0.7431640625 -0.0244140625 0  0.9125192091096518 0.2689329041310324 0  0.2010152702880121 -0.05601716208528105 0  </DataArray>
</Points>
<Cells>
<DataArray  type="UInt32"  Name="connectivity"  format="ascii">22 93 219  54 143 170  56 144 168  45 155 181  41 76 177  27 79 119  29 107 131  37 103 104  50 117 188  35 97 126  18 109 149  39 108 162  40 129 147  48 76 77  42 72 73  48 132 187  50 84 85  150 180 216  48 119 164  49 127 139  33 89 116  45 181 215  50 116 165  51 126 142  72 73 217  52 118 160  131 141 175  51 125 163  43 123 146  27 61 133  54 129 141  29 131 141  127 139 205  56 118 140  35 126 140  128 143 204  67 146 226  55 134 139  55 139 145  10 69 227  71 144 207  70 168 207  52 71 144  75 125 163  42 158 178  22 74 152  95 96 214  51 142 217  34 75 125  41 150 216  99 151 177  78 187 222  78 132 187  26 78 132  79 119 164  48 76 164  80 81 211  24 101 150  25 82 157  84 85 210  14 90 155  86 188 221  86 117 188  32 86 117  87 88 215  91 156 179  89 116 165  50 84 165  20 90 181  90 155 181  15 86 221  15 91 156  96 152 214  42 95 178  97 126 142  73 142 217  17 72 158  17 98 158  25 81 151  25 99 151  13 101 180  101 150 180  39 108 109  28 66 170  37 159 176  18 105 149  108 109 212  39 131 162  107 131 162  109 149 212  37 108 176  28 102 130  102 130 161  30 103 159  30 111 159  55 145 174  50 117 173  55 134 173  32 63 134  144 168 207  43 138 146  48 132 169  133 138 206  61 133 206  53 138 146  53 133 138  56 140 171  34 70 168  126 140 171  51 126 171  63 134 205  134 139 205  66 170 204  40 128 143  143 170 204  39 109 161  39 130 161  39 130 175  39 131 175  132 169 172  26 132 172  48 119 169  27 119 133  32 117 134  117 134 173  120 138 206  43 120 138  49 69 145  49 139 145  35 64 140  64 118 140  29 62 141  62 129 141  16 73 142  16 97 142  54 129 143  40 129 143  56 118 144  52 118 144  33 68 174  68 145 174  53 146 172  53 169 172  7 147 203  31 189 229  104 225 229  24 80 150  41 151 211  41 151 177  81 151 211  16 190 228  16 73 228  14 84 155  45 156 210  45 156 179  85 156 210  25 81 157  98 158 178  42 72 158  111 159 176  37 103 159  1 160 202  18 102 161  18 109 161  19 108 162  19 107 162  17 75 163  17 72 163  12 76 164  12 79 164  14 84 165  14 89 165  30 106 166  30 103 166  24 80 167  24 100 167  34 168 223  56 168 223  119 133 169  53 133 169  28 130 170  54 130 170  34 125 223  51 125 171  67 146 172  26 67 172  50 116 173  55 116 173  55 116 174  33 116 174  54 141 175  54 130 175  19 111 176  19 108 176  12 99 177  12 76 177  23 98 178  95 153 224  21 91 179  77 180 216  13 78 222  88 181 215  20 83 220  88 185 220  96 186 219  77 187 222  48 77 187  85 188 221  50 85 188  105 149 229  105 189 229  74 152 228  74 190 228  104 213 225  118 160 202  64 118 202  129 147 203  62 129 203  8 128 204  8 66 204  11 127 205  11 63 205  4 61 206  4 120 206  2 71 207  2 70 207  23 208 224  45 155 210  84 155 210  41 150 211  80 150 211  37 149 212  37 108 212  103 104 213  42 152 214  42 95 214  45 179 215  87 179 215  41 76 216  76 77 216  51 163 217  72 163 217  22 152 219  96 152 219  20 181 220  88 181 220  15 156 221  85 156 221  13 180 222  77 180 222  125 171 223  56 171 223  95 178 224  23 178 224  31 225 229  31 200 225  123 146 226  5 123 226  69 145 227  68 145 227  42 73 228  42 152 228  37 104 229  37 149 229  46 191 231  137 191 231  46 185 231  137 185 231  38 196 232  113 196 232  113 148 232  94 153 233  94 208 233  153 224 233  208 224 233  47 167 234  135 167 234  47 197 234  135 197 234  38 213 235  148 213 235  38 232 235  148 232 235  9 194 238  9 209 239  113 148 239  9 238 239  113 238 239  113 237 238  194 237 238  113 196 240  3 115 241  3 112 241  112 197 242  114 191 244  57 192 245  136 192 245  136 195 245  6 135 247  6 122 248  47 157 252  112 157 252  47 197 252  112 197 252  137 185 254  83 253 254  137 253 254  83 220 255  185 220 255  83 254 255  185 254 255  0 195 256  136 195 256  0 256 257  136 256 257  44 192 258  136 192 258  44 186 258  136 186 258  44 153 259  95 153 259  95 96 259  136 186 260  93 257 260  136 257 260  93 219 261  186 219 261  93 260 261  186 260 261  100 167 262  135 167 262  100 247 262  135 247 262  47 167 263  80 167 263  80 81 263  106 166 264  122 166 264  6 122 265  106 264 265  122 264 265  82 157 267  82 199 267  112 157 268  3 112 268  3 199 268  157 267 268  199 267 268  114 201 269  46 154 269  154 201 269  92 201 270  154 201 270  21 92 271  87 154 272  21 179 272  87 179 272  21 271 272  154 271 272  92 270 271  154 270 271  38 166 274  103 166 274  38 213 274  103 213 274  38 166 275  122 166 275  38 196 275  122 196 275  137 191 277  137 194 277  110 148 278  110 200 278  200 225 278  3 115 279  3 218 279  115 153 279  44 153 280  115 153 280  44 192 280  115 192 280  46 154 281  87 154 281  87 88 281  47 157 282  81 157 282  47 263 282  81 263 282  6 135 283  46 185 284  88 185 284  46 281 284  88 281 284  44 186 285  96 186 285  44 259 285  96 259 285  46 191 286  114 191 286  46 269 286  114 269 286  57 192 287  115 192 287  9 194 289  137 194 289  9 253 289  137 253 289  0 195 290  122 196 291  122 248 291  135 197 292  60 283 292  135 283 292  148 213 294  213 225 294  148 278 294  225 278 294  0 201 295  92 201 295  0 201 296  114 201 296  0 290 296  114 290 296  110 148 297  110 209 297  148 239 297  209 239 297  94 153 298  94 218 298  153 279 298  218 279 298  65 230 299  65 241 299  115 241 299  193 230 300  57 236 300  193 236 300  65 230 301  193 230 301  65 288 301  193 288 301  57 236 302  195 236 302  57 245 302  195 245 302  124 236 303  195 236 303  124 290 303  195 290 303  124 236 304  193 236 304  124 293 304  193 293 304  113 237 305  121 237 305  113 240 305  121 240 305  121 237 306  194 237 306  121 246 306  194 246 306  59 240 307  196 240 307  59 291 307  196 291 307  59 240 308  121 240 308  59 250 308  65 241 309  112 241 309  65 243 309  60 242 310  197 242 310  60 292 310  197 292 310  184 243 311  60 251 311  184 251 311  65 243 312  184 243 312  65 288 312  184 288 312  60 242 313  242 243 313  60 311 313  243 311 313  112 242 314  242 243 314  112 309 314  243 309 314  114 244 315  114 290 315  124 290 315  191 244 316  58 277 316  191 277 316  58 246 317  194 246 317  58 277 317  194 277 317  58 246 318  198 246 318  58 276 318  198 276 318  121 246 319  198 246 319  121 273 319  198 273 319  36 249 320  184 249 320  36 288 320  184 288 320  182 249 321  184 249 321  182 251 321  184 251 321  59 250 322  59 266 322  182 266 322  36 249 323  249 250 323  36 273 323  250 273 323  182 249 324  249 250 324  182 322 324  250 322 324  60 251 325  183 251 325  60 283 325  183 283 325  182 251 326  183 251 326  182 266 326  183 266 326  59 266 327  248 266 327  59 291 327  248 291 327  183 266 328  248 266 328  6 248 329  6 283 329  183 283 329  183 328 329  248 328 329  36 273 330  198 273 330  36 293 330  198 293 330  121 273 331  250 273 331  121 308 331  250 308 331  124 276 332  198 276 332  124 293 332  198 293 332  58 276 333  244 276 333  58 316 333  244 316 333  124 276 334  244 276 334  124 315 334  244 315 334  57 287 335  230 287 335  57 300 335  230 300 335  115 287 336  230 287 336  115 299 336  230 299 336  36 288 337  193 288 337  36 293 337  193 293 337  </DataArray>
<DataArray  type="UInt32"  Name="offsets"  format="ascii">3 6 9 12 15 18 21 24 27 30 33 36 39 42 45 48 51 54 57 60 63 66 69 72 75 78 81 84 87 90 93 96 99 102 105 108 111 114 117 120 123 126 129 132 135 138 141 144 147 150 153 156 159 162 165 168 171 174 177 180 183 186 189 192 195 198 201 204 207 210 213 216 219 222 225 228 231 234 237 240 243 246 249 252 255 258 261 264 267 270 273 276 279 282 285 288 291 294 297 300 303 306 309 312 315 318 321 324 327 330 333 336 339 342 345 348 351 354 357 360 363 366 369 372 375 378 381 384 387 390 393 396 399 402 405 408 411 414 417 420 423 426 429 432 435 438 441 444 447 450 453 456 459 462 465 468 471 474 477 480 483 486 489 492 495 498 501 504 507 510 513 516 519 522 525 528 531 534 537 540 543 546 549 552 555 558 561 564 567 570 573 576 579 582 585 588 591 594 597 600 603 606 609 612 615 618 621 624 627 630 633 636 639 642 645 648 651 654 657 660 663 666 669 672 675 678 681 684 687 690 693 696 699 702 705 708 711 714 717 720 723 726 729 732 735 738 741 744 747 750 753 756 759 762 765 768 771 774 777 780 783 786 789 792 795 798 801 804 807 810 813 816 819 822 825 828 831 834 837 840 843 846 849 852 855 858 861 864 867 870 873 876 879 882 885 888 891 894 897 900 903 906 909 912 915 918 921 924 927 930 933 936 939 942 945 948 951 954 957 960 963 966 969 972 975 978 981 984 987 990 993 996 999 1002 1005 1008 1011 1014 1017 1020 1023 1026 1029 1032 1035 1038 1041 1044 1047 1050 1053 1056 1059 1062 1065 1068 1071 1074 1077 1080 1083 1086 1089 1092 1095 1098 1101 1104 1107 1110 1113 1116 1119 1122 1125 1128 1131 1134 1137 1140 1143 1146 1149 1152 1155 1158 1161 1164 1167 1170 1173 1176 1179 1182 1185 1188 1191 1194 1197 1200 1203 1206 1209 1212 1215 1218 1221 1224 1227 1230 1233 1236 1239 1242 1245 1248 1251 1254 1257 1260 1263 1266 1269 1272 1275 1278 1281 1284 1287 1290 1293 1296 1299 1302 1305 1308 1311 1314 1317 1320 1323 1326 1329 1332 1335 1338 1341 1344 1347 1350 1353 1356 1359 1362 1365 1368 1371 1374 1377 1380 1383 1386 1389 1392 1395 1398 1401 1404 1407 1410 1413 1416 1419 1422 1425 1428 1431 1434 1437 1440 1443 1446 1449 1452 1455 1458 1461 1464 1467 1470 1473 1476 1479 1482 1485 1488 1491 1494 1497 1500 1503 1506 1509 1512 1515 1518 1521 1524 1527 1530 1533 1536 1539 1542 1545 1548 1551 1554 1557 1560 1563 1566 1569 1572 1575 1578 1581 1584 1587 1590 1593 1596 1599 1602 1605 1608 1611 1614 1617 1620 1623 1626 1629 1632 1635 1638 1641 1644 1647 1650 1653 1656 1659 1662 1665 1668 1671 1674 1677 1680 1683 1686 1689 1692 1695 1698 1701 1704 1707 1710 1713 1716 1719 1722 1725 1728 1731 1734 </DataArray>
<DataArray  type="UInt8"  Name="types"  format="ascii">5 5 5 5 5 5 5 5 5 5 5 5 5 5 5 5 5 5 5 5 5 5 5 5 5 5 5 5 5 5 5 5 5 5 5 5 5 5 5 5 5 5 5 5 5 5 5 5 5 5 5 5 5 5 5 5 5 5 5 5 5 5 5 5 5 5 5 5 5 5 5 5 5 5 5 5 5 5 5 5 5 5 5 5 5 5 5 5 5 5 5 5 5 5 5 5 5 5 5 5 5 5 5 5 5 5 5 5 5 5 5 5 5 5 5 5 5 5 5 5 5 5 5 5 5 5 5 5 5 5 5 5 5 5 5 5 5 5 5 5 5 5 5 5 5 5 5 5 5 5 5 5 5 5 5 5 5 5 5 5 5 5 5 5 5 5 5 5 5 5 5 5 5 5 5 5 5 5 5 5 5 5 5 5 5 5 5 5 5 5 5 5 5 5 5 5 5 5 5 5 5 5 5 5 5 5 5 5 5 5 5 5 5 5 5 5 5 5 5 5 5 5 5 5 5 5 5 5 5 5 5 5 5 5 5 5 5 5 5 5 5 5 5 5 5 5 5 5 5 5 5 5 5 5 5 5 5 5 5 5 5 5 5 5 5 5 5 5 5 5 5 5 5 5 5 5 5 5 5 5 5 5 5 5 5 5 5 5 5 5 5 5 5 5 5 5 5 5 5 5 5 5 5 5 5 5 5 5 5 5 5 5 5 5 5 5 5 5 5 5 5 5 5 5 5 5 5 5 5 5 5 5 5 5 5 5 5 5 5 5 5 5 5 5 5 5 5 5 5 5 5 5 5 5 5 5 5 5 5 5 5 5 5 5 5 5 5 5 5 5 5 5 5 5 5 5 5 5 5 5 5 5 5 5 5 5 5 5 5 5 5 5 5 5 5 5 5 5 5 5 5 5 5 5 5 5 5 5 5 5 5 5 5 5 5 5 5 5 5 5 5 5 5 5 5 5 5 5 5 5 5 5 5 5 5 5 5 5 5 5 5 5 5 5 5 5 5 5 5 5 5 5 5 5 5 5 5 5 5 5 5 5 5 5 5 5 5 5 5 5 5 5 5 5 5 5 5 5 5 5 5 5 5 5 5 5 5 5 5 5 5 5 5 5 5 5 5 5 5 5 5 5 5 5 5 5 5 5 5 5 5 5 5 5 5 5 5 5 5 5 5 5 5 5 5 5 5 5 5 5 5 5 5 5 5 5 5 5 5 5 5 5 5 5 5 5 5 5 5 5 5 5 5 5 5 5 5 5 5 5 5 5 5 5 5 5 5 5 5 5 5 5 5 5 5 5 5 5 </DataArray>
</Cells>
<PointData  Scalars="u"> 
<DataArray  type="Float64"  Name="u"  format="ascii">-3.3085877633627497e-01  0.0000000000000000e+00  0.0000000000000000e+00  -3.2966409488442644e-01  -6.5938470919024528e-01  -6.5938470919024528e-01  -3.2987628833505805e-01  0.0000000000000000e+00  0.0000000000000000e+00  -3.2958929803042319e-01  -6.5938470919024528e-01  -6.5938470919024528e-01  -5.0234062349949049e-01  -5.0328671226840727e-01  -5.0226772530831354e-01  -5.0328009997391798e-01  -1.5768862373523262e-01  -1.5696333137859581e-01  -1.5678296123412866e-01  -1.5705156931684500e-01  -4.2408277473454042e-01  -4.2389612119247377e-01  -2.3606578541887760e-01  -2.3537011720644943e-01  -4.2481470180729058e-01  -4.2435697730410338e-01  -5.8113679239668248e-01  -5.8125302418253599e-01  -7.7358423057343514e-02  -7.8427958126815966e-02  -2.3507493286315820e-01  -2.3487946027706857e-01  -5.8080666501660916e-01  -5.8142562768420170e-01  -7.8057175980897966e-02  -7.8561288752353367e-02  -3.2975416805332203e-01  -1.9568177118686475e-01  -2.7249791715732158e-01  -1.1737994673116015e-01  0.0000000000000000e+00  -4.6406207040037323e-01  -1.9629359501595386e-01  -6.5938470919024528e-01  -2.7280792127399039e-01  -4.6333286066566248e-01  -3.8682235228730860e-01  -3.8702511764101288e-01  -5.4212094516887555e-01  -6.5938470919024528e-01  -5.4183426173469440e-01  -1.1770084070918001e-01  0.0000000000000000e+00  -6.0067390761964612e-01  -5.8650431883967347e-02  -6.0057816831693034e-01  -5.8845106826491897e-02  -3.1476529001027553e-01  -3.4487595166077534e-01  -3.1463521352615303e-01  -3.4484999017578660e-01  -6.2129681573647255e-01  -4.0095017234010197e-02  -6.2103594153571295e-01  -4.0189361359843218e-02  -3.2794059695521194e-01  -3.8633857715547712e-02  -6.1948705562744666e-01  -6.1930358407598096e-01  -6.5938470919024528e-01  -3.8675074748705497e-02  0.0000000000000000e+00  -1.5703589477540125e-01  -1.6133084780883056e-01  -1.9571891724554197e-01  -1.1775313947716147e-01  -5.0300980280562391e-01  -5.0729904239563495e-01  -5.4129404988447638e-01  -5.4218266761565770e-01  -4.2503140247339005e-01  -4.2053836154327728e-01  -3.8351138142082375e-01  -3.8501965965611296e-01  -5.0255568416707019e-01  -5.0687749568528573e-01  -5.4096842758811758e-01  -4.2455712318242178e-01  -4.2030884771185911e-01  -5.4202456845912206e-01  -4.6263800492367546e-01  -4.6273803944541986e-01  -3.8433234831714336e-01  -2.7485750960347338e-01  -2.7562113829287221e-01  -2.3515608379334585e-01  -2.3946831228088183e-01  -1.1775341688862712e-01  -1.9703248587702632e-01  -4.6439056932460887e-01  -3.8370904939178829e-01  -4.6477225499523173e-01  -1.1756944774260356e-01  -2.3458238199462825e-01  -2.3039221014243341e-01  -1.9640845861490414e-01  -2.7543641004967861e-01  -1.1774862260491142e-01  -1.5660328929280967e-01  -1.5227901827274204e-01  -2.7471156225817284e-01  -1.9497495025630987e-01  -3.5523350817488070e-01  -3.0270017728478799e-01  -3.5660067413157653e-01  -2.9994474211501360e-01  -5.6143534556013108e-01  -5.6136076761155218e-01  -3.2612025884935912e-02  -5.6166686684243017e-01  -6.5938470919024528e-01  -3.2587461039421972e-01  -2.9202659089340910e-01  -6.5938470919024528e-01  -3.3372054772797310e-01  -9.8082809597197507e-02  -9.8162645904840515e-02  -6.5938470919024528e-01  0.0000000000000000e+00  -3.2532525240081496e-02  -9.0640431508157634e-02  -9.7937337701047039e-02  -5.6156001179031001e-01  -5.9860610860919328e-01  -5.9838654855713391e-01  -3.6741122575705654e-01  -2.9324058067421094e-01  -3.6632381520851248e-01  -6.2935507161638871e-01  -6.2809899261345103e-01  -6.4783576502325357e-02  -6.4629622466879547e-02  -1.3013412737023600e-01  -2.7895388262406218e-02  -2.7947762725131810e-02  -6.2561970501916131e-01  -6.2567594854121844e-01  0.0000000000000000e+00  -2.7547257913593992e-01  -1.8439851767229748e-01  -4.5533700428650253e-01  -4.5255630401711566e-01  -2.0767581078176647e-01  -2.7318952683231512e-01  -3.9472669934773413e-01  -4.7212876944138116e-01  -4.7480171193133763e-01  -3.8981384357044208e-01  -1.8743103580956572e-01  -2.0446996687108318e-01  0.0000000000000000e+00  -1.2190504373866139e-01  -1.2899394563400748e-01  -1.2916070963375101e-01  -5.3175359196492888e-01  -5.3148662591838725e-01  -2.6240180096267979e-01  -3.9623100556487362e-01  -5.0028768047169811e-02  -5.7140868658693666e-01  -6.2068634635953829e-02  -8.7521172743026551e-02  -5.9082013492091312e-01  -5.7192849754314701e-01  -5.9639240305650509e-01  -8.7378042806127265e-02  -1.7621737658335798e-01  -4.8081413968914488e-01  -2.1587463945986057e-01  -4.4635028701947371e-01  -4.8374375349393062e-01  -4.4366653767073994e-01  -3.2987253188963150e-01  -3.3194826012473566e-01  -3.3413350293570759e-01  -3.9360509750623895e-01  -2.6615535525733908e-01  -5.3439567113126163e-01  -5.3409462781414074e-01  -2.1551273028862655e-01  -1.7661673650760171e-01  -3.6430959144226849e-01  -2.9542582454309430e-01  -3.2610347201912787e-01  -3.3461808067143889e-01  -3.1723739111738425e-01  -2.9579178123001620e-01  -3.6351580120004962e-01  -3.3335729550775983e-01  -3.6247253841514693e-01  -2.5502273460261371e-01  -3.7113313797289377e-01  -1.8684890356817970e-02  -1.8640256518621993e-02  -2.3941003872822435e-02  -6.3387031634799218e-01  -6.3530624816203174e-01  -2.4038658086974512e-02  -2.5563854015228221e-01  -2.9589386329389222e-01  -4.8573553498301958e-01  -4.4170432358787021e-01  -1.7340551758997941e-01  -2.5466006995739082e-01  -2.1854857388963236e-01  -4.3788985387742285e-01  -4.8363882740482861e-01  -1.4115017553779921e-01  -2.9733711179611844e-01  -2.4985617662496501e-01  -4.0997093274635810e-01  -5.1704060868096513e-01  -5.1735171883353959e-01  -7.3578475671257665e-02  -2.4518077955151638e-01  -2.4460969578809424e-01  -6.4039886956856118e-01  -6.4027984227256851e-01  -1.8249345404665651e-01  -2.0963586374715884e-01  -3.1919330438467858e-01  -3.7736735263275484e-01  -2.8743341413971718e-01  -2.6452428619899404e-01  -3.7751010569094778e-01  -2.7357493563229679e-01  -3.2508998639917636e-01  -3.1818192128554662e-01  -3.1141861197562121e-01  -3.0057908957197305e-01  -3.0793114301993602e-01  -3.2840541439233512e-01  -3.5072462460270903e-01  -3.4208729639534885e-01  -3.5145247467713919e-01  -3.0500644033998581e-01  -3.3461605629603558e-01  -3.6264434325075612e-01  -3.1406838957466221e-01  -3.2973991155855464e-01  -3.2531067974503824e-01  -3.3645838020978341e-01  -3.7085161303743902e-01  -3.6337593815492053e-01  -3.7497464347636056e-01  -3.8908954303162757e-01  -3.0629847151473355e-01  -2.9682097522248480e-01  -2.8231644605167433e-01  -2.5425761357903115e-01  -2.8484281026375602e-01  -2.7072664210817415e-01  -3.7411471475727476e-01  -4.0565826918733183e-01  -2.8540342121779610e-01  -2.9677398487337031e-01  -3.2170937845696496e-01  -3.7675060240265740e-01  -3.5603805922560955e-01  -3.7959899681703169e-01  -3.8957571165874189e-01  -4.0918016672492191e-01  -4.2433977583753296e-01  -3.2877735240076594e-01  -2.5385047972788782e-01  -2.8196362002173125e-01  -3.4034325203772492e-01  -3.5474717652336674e-01  -2.6527598696153304e-01  -3.0099043944612153e-01  -2.8658211643558873e-01  -4.0549512640172791e-01  -4.0341342504436267e-01  -3.4816307367271015e-01  -4.0337249461758834e-01  -2.5638048097572552e-01  -3.7193449231045234e-01  -3.0707558235560073e-01  -3.2884617881075284e-01  -3.5336144777977158e-01  -3.3829325820794093e-01  -3.0517582930232229e-01  -3.5424936684629582e-01  -3.3083298993511256e-01  -2.6004557231788783e-01  -3.6327760229187039e-01  -3.4809796400582238e-01  -2.8561168026397177e-01  -2.8497313248687545e-01  -3.1708821821330457e-01  -3.2126780295939528e-01  -3.2502768200485577e-01  -3.1512370418996583e-01  -3.2812333892393442e-01  -3.2896780710326201e-01  -3.1623157678554170e-01  -3.2874524887918155e-01  -3.0586782748306757e-01  -3.1889191211309131e-01  -3.3864274009146045e-01  -3.5352792160014529e-01  -3.3913298355170579e-01  -3.3212162356209535e-01  -3.4450629047961429e-01  -3.4783414509393085e-01  -3.4305928674494252e-01  -3.5389513435462094e-01  -3.4107079679973545e-01  -3.3817062166169465e-01  -3.3051992809839514e-01  -3.3080565031890607e-01  -3.3301778635191398e-01  -3.2305392391058502e-01  -3.2860840199362273e-01  -3.2670673389559973e-01  -3.3956761489287596e-01  -3.3036523074766017e-01  -3.1368678625520852e-01  -3.2402516845893747e-01  -3.3122237684604111e-01  -3.3062766686431766e-01  -3.2474428992106308e-01  -3.3466354246773306e-01  -3.4849890602032552e-01  -3.4197823318735693e-01  -3.1649004258082936e-01  -3.1145240978266553e-01  -3.2883898530610312e-01  </DataArray> 
</PointData> 
</Piece>
</UnstructuredGrid>
</VTKFile>