<?xml version="1.0"?>
<VTKFile type="UnstructuredGrid"  version="0.1"  >
<UnstructuredGrid>
<Piece  NumberOfPoints="778" NumberOfCells="1401">
<Points>
<DataArray  type="Float64"  NumberOfComponents="3"  format="ascii">1 -1 0  6 -1 0  6 1 0  1 1 0  1 6 0  -1 6 0  -1 1 0  -6 1 0  -6 -1 0  -1 -1 0  -1 -6 0  1 -6 0  1 3.5 0  -1 3.5 0  -1 -3.5 0  1 -3.5 0  3.5 -1 0  3.5 1 0  -3.5 -1 0  -3.5 1 0  -1 -2.25 0  1 -2.25 0  2.25 -1 0  2.25 1 0  -1 2.25 0  1 2.25 0  -1 4.75 0  1 4.75 0  -4.75 -1 0  -4.75 1 0  -2.25 1 0  -2.25 -1 0  1 -4.75 0  -1 -4.75 0  4.75 1 0  4.75 -1 0  0 0 0  -2.875 0 0  -1.625 0 0  -4.125 0 0  -6 0 0  0 2.875 0  2.875 0 0  0 6 0  1.625 0 0  0 -2.875 0  0 -1.625 0  0 1.625 0  0 4.125 0  0 -6 0  0 -4.125 0  4.125 0 0  6 0 0  -0.109375 5.0625 0  -5.0625 -0.109375 0  -0.109375 -5.0625 0  5.0625 0.109375 0  0.8125 -0.1875 0  -0.1875 -0.8125 0  -0.8125 0.1875 0  -0.1875 0.8125 0  1 5.375 0  -5.375 1 0  1 -5.375 0  5.375 -1 0  0.53515625 0.46484375 0  -5.375 -1 0  -1 5.375 0  -1 -5.375 0  -0.5 -6 0  5.375 1 0  6 0.5 0  3.5 0.3046875 0  3.43125 -0.34765625 0  2.875 -1 0  4.125 1 0  0.3046875 3.5 0  -0.34765625 3.56875 0  -1 4.125 0  1 4.125 0  -0.3046875 2.25 0  0.34765625 2.18125 0  1 1.625 0  -1 -1.625 0  -0.3046875 -3.5 0  0.34765625 -3.56875 0  1 -4.125 0  0.3046875 -2.25 0  -0.34765625 -2.18125 0  -1 -4.125 0  -1 -2.875 0  1 -2.875 0  1 -1.625 0  1.625 -1 0  1.625 1 0  2.25 0.3046875 0  2.18125 -0.34765625 0  4.125 -1 0  2.875 1 0  1 2.875 0  -1 1.625 0  -1 2.875 0  -4.125 -1 0  -2.25 0.3046875 0  -2.31875 -0.34765625 0  -2.875 -1 0  -1.625 1 0  -4.125 1 0  -3.5 0.3046875 0  -3.56875 -0.34765625 0  -1.625 -1 0  -2.875 1 0  0.380626321794301 1.06853329530276 0  -1.110819327731092 -0.3739495798319328 0  0.3739495798319328 -1.110819327731092 0  1.151210293219304 0.3991939332620648 0  -0.5 -4.4375 0  0.5 -4.4375 0  5.481553398058253 -0.3712833737864077 0  0.5 4.4375 0  0.5 6 0  -0.522503783594538 -0.3265648647465863 0  -1.3125 0.5 0  -0.5 6 0  0.3265648647465863 -0.522503783594538 0  4.4375 0.5 0  4.4375 -0.5 0  0.5 -6 0  -6 -0.5 0  -5.481553398058253 0.3712833737864077 0  -4.55 -0.4296875 0  -4.4375 0.5 0  -0.5 4.4375 0  0.4792930825242718 5.026881067961165 0  0.4792930825242718 -5.026881067961165 0  -0.5 1.3125 0  1.3125 -0.5 0  -0.5 -1.3125 0  0.25 5.518539952962044 0  0.2125133872612723 -5.500076563152851 0  4.969341874373811 -0.5152550785163683 0  -4.969341874373811 0.5152550785163683 0  3.927189744345589 -0.4712876597840069 0  -5.554036458333333 -0.25 0  5.554036458333333 0.25 0  -0.4690710616438356 -5.462756849315069 0  -0.4690710616438356 5.462756849315069 0  -6 0.5 0  -1.59556436210848 -0.5 0  -3.058421751829955 -0.5 0  -0.5 2.731982421875 0  0.5 2.691578248170045 0  2.691578248170045 -0.5 0  1.641211254104555 0.5 0  0.5 -1.768017578125 0  0.5 -3.058421751829955 0  0.5 1.699267578125 0  3.018017578125 0.5 0  -0.5 -3.018017578125 0  -2.731982421875 0.5 0  6 -0.5 0  -4.050017120925308 -0.5006099332648871 0  -3.940668202764977 0.5371363767281105 0  3.940668202764977 0.5371363767281105 0  0.4517449476047904 3.958458083832335 0  -0.4517449476047904 -3.958458083832335 0  -1.809331797235023 0.5371363767281105 0  -0.4517449476047904 1.791541916167665 0  -0.0546875 4.59375 0  -5.006445312499999 -0.58984375 0  4.605643203883496 -0.04725424757281554 0  4.90625 0.5546875 0  -0.5546875 4.90625 0  0.04725424757281554 -4.605643203883496 0  -0.586116118210531 -4.995821561900013 0  -4.603710222472543 0.04846236095466061 0  -3.1875 0.65234375 0  0.6163907621110913 3.147502300973589 0  2.5625 0.65234375 0  0.6163907621110913 -2.602497699026411 0  -0.637456713551384 3.189259902731882 0  -0.637456713551384 -2.560740097268118 0  -0.34765625 0.34765625 0  -0.639453125 0.708203125 0  0.089630126953125 0.437286376953125 0  -0.4238281249999999 -1.746875 0  1.746875 -0.4238281249999999 0  -0.4238281249999999 4.003125 0  0.4238281249999999 -4.003125 0  -2.5625 -1 0  3.1875 -1 0  -0.09375 -1.21875 0  1.21875 -0.09375 0  0.4020305405760241 -0.1120343241705621 0  -0.6280191027904287 -0.7577505545748082 0  0.90625 -0.59375 0  -1.205500904741459 0.03633725387965409 0  -0.02129048848213058 1.202028574265107 0  -0.1120343241705621 -0.4020305405760241 0  1 1.3125 0  -2.003587563743074 -0.6442361556699288 0  0.6640077663259718 -1.395873598614549 0  5.6875 -1 0  0.6308138580859101 -5.592151086468728 0  -5.6875 -1 0  0.6568032075915271 5.612942566073222 0  5.616530031741774 0.6612875396772174 0  -5.6875 1 0  1.9375 1 0  -1.3125 -1 0  0.1524679547155687 -3.232579139388032 0  0.1524679547155687 2.517420860611968 0  -3.232579139388032 -0.1524679547155687 0  -1.932320553757026 -0.252759244693845 0  2.517420860611968 -0.1524679547155687 0  -0.04776045819569434 -2.464949198504599 0  -0.2420369079104247 3.187693796852321 0  3.751304711039982 -0.1203080877045035 0  -5.397601941771943 -0.609026059866711 0  1.3125 1 0  1.9375 -1 0  -0.6946315101963667 -2.018229242739021 0  -0.6946315101963667 3.731770757260979 0  1 -3.8125 0  2.014364435550335 0.6166648446293641 0  -1 5.6875 0  -1 -5.6875 0  -2.653476149871182 -0.5942957192996303 0  3.096523850128818 -0.5942957192996303 0  1 1.9375 0  -3.8125 -1 0  0.586975531244212 -0.7975955463807081 0  -0.2946248980953088 -4.743710873809568 0  2.625453376770019 0.2814788818359375 0  -3.124546623229981 0.2814788818359375 0  -0.1204856417894853 5.631800603217465 0  5.253862011026742 0.6581468962876398 0  -0.65234375 2.108701557941197 0  0.65234375 3.641298442058803 0  -0.65234375 -3.641298442058803 0  -0.25 -5.744880569758637 0  -4.4375 -1 0  -0.3166212631734941 -2.713595940002554 0  0.6591479224207506 0.1324305912687024 0  0.8660781906552419 0.6468634238104103 0  -0.9887189158197679 0.6452930723873549 0  0.3149351927204296 -1.460971774996065 0  -0.3572852727880474 -0.009629022788047503 0  2.09375 -0.6866724363772454 0  0.6866724363772454 -3.65625 0  0.6866724363772454 2.09375 0  -3.65625 -0.6866724363772454 0  -3.5371337890625 0.65234375 0  -0.1389584113023952 1.944025352615082 0  -2.151744288472698 0.65234375 0  -0.1389584113023951 -3.805974647384918 0  0.1389584113023951 3.805974647384918 0  -2.578772109813904 0.1857224367977529 0  3.171227890186096 0.1857224367977529 0  3.360315647536819 0.65234375 0  0.1857224367977528 -1.921227890186096 0  0.65234375 -2.110315647536819 0  1.894016528727564 0.2415406141485869 0  -3.738232421875 0 0  0.2516875549238616 3.139069895099618 0  -1.913724396854074 0.2011142179916434 0  0.1669456568161915 0.7843410671359501 0  -2.5625 1 0  -1 -3.1875 0  -1 2.5625 0  0.1736601499778735 4.857955663330752 0  -0.1893536587212888 2.577300639071919 0  -0.1893536587212888 -3.172699360928081 0  3.852271904453858 0.206603749322895 0  -3.8125 1 0  -0.1250095034621793 -5.421707592768541 0  3.8125 -1 0  3.617304217264373 -0.6578427703661498 0  0.2630176195580202 -2.636558318495885 0  0.2674330357770522 1.399517071108871 0  0.631726413079416 1.339254523727593 0  4.700571879807737 0.2813704945051134 0  0.7143844363649634 -3.319538455208831 0  2.430461544791169 -0.7143844363649634 0  0.7143844363649634 2.430461544791169 0  -3.319538455208831 -0.7143844363649634 0  5.687045771608623 -0.6520598572553891 0  -5.687045771608623 0.6520598572553891 0  -1.15625 -0.7048248829733235 0  3.438284572973296 -0.01860298867862281 0  -0.03021088078697859 3.451572359862192 0  2.216682837011589 -0.02159585961918548 0  -2.191580885932936 -0.03126387444658879 0  0.1857410764408683 1.895679405349457 0  3.103473238297955 -0.253270943723272 0  -2.646526761702045 -0.253270943723272 0  -2.333137350671861 -0.6791984914172315 0  -1 5.0625 0  -0.6971235589909319 5.213002544375844 0  0.01618705363819947 2.225929180591695 0  0.01618705363819947 -3.524070819408305 0  0.5690054882403073 0.7951310720450595 0  -0.5764940424412852 -3.329579265180942 0  -0.5764940424412852 2.420420734819058 0  3.8125 1 0  -5.372163860234628 0.04365139563106807 0  5.164108319316826 -0.225040894204947 0  -5.361952437854323 0.6744012088984681 0  -5.0625 1 0  5.286835586913878 -0.6616705837083201 0  -5.692815197359722 0.1186699900166531 0  5.663425996156958 -0.07763197815533956 0  -0.9219866027132193 -0.1143045829323572 0  -1.394333629759332 -0.2233077430199216 0  0.09322478991596644 -0.9616596638655462 0  5.0625 -1 0  -0.14412109375 -1.92169189453125 0  -4.28125 -0.7212148987671345 0  0.2649796277366407 0.1735162902120744 0  -4.907855692236596 0.1868230509619793 0  -1.9375 1 0  1 5.0625 0  0.6915124486819284 -5.272938212550202 0  0.683483242673902 5.284948082526911 0  2.5625 -1 0  -1 -3.8125 0  -1 1.9375 0  5.0625 1 0  -1 -1.9375 0  1 5.6875 0  1 -5.6875 0  -1.9375 -1 0  -1 -2.5625 0  -1 3.1875 0  1 -3.1875 0  1 -2.5625 0  1 2.5625 0  1 3.1875 0  -5.0625 -1 0  -1 -1.3125 0  1.3125 -1 0  -1 1.3125 0  -1 3.8125 0  -1 4.4375 0  -4.4375 1 0  4.4375 -1 0  4.4375 1 0  -1.3125 1 0  1 4.4375 0  1 -4.4375 0  -1 -5.0625 0  -1 -4.4375 0  -3.1875 1 0  2.5625 1 0  1 -1.9375 0  1 -1.3125 0  5.6875 1 0  1 3.8125 0  3.1875 1 0  -3.1875 -1 0  1 -5.0625 0  1.35138038998199 0.6675097549271188 0  -0.465625 0.986328125 0  1.435958105992309 0.2563920171199723 0  1.915914614192913 -0.145782394639918 0  -0.8764440609469509 -0.5746869313612541 0  5.355194559946098 0.01566259380337612 0  -5.69333042954964 -0.5242868300459975 0  1.78125 -0.7320750794491524 0  0.7320750794491525 -3.96875 0  -0.3959075548864684 5.166422468926435 0  -4.770522389068053 -0.2123670725088856 0  -4.714160156249999 -0.69234375 0  -4.273484403713342 -0.278160994327167 0  0.9642590244517505 0.08196089404241463 0  0.3500261717645397 -4.727285205957206 0  0.6740868006020392 -4.765147848348443 0  0.6797550207247084 -1.089747806381148 0  -5.186479934354063 0.3046329157552757 0  -5.263288238215326 -0.3369092276308425 0  -2.433484016245305 0.5442571297016638 0  0.1707808983307866 -3.82363304980935 0  -0.1554012991031027 3.867535742674252 0  4.855508096805579 -0.2283975605264581 0  3.644517238097614 0.5646428152488787 0  0.05699603874439441 -0.6452791208413911 0  -0.3550018917972689 -0.5695324323732931 0  0.6
[...]
<PointData  Scalars="u"> 
<DataArray  type="Float64"  Name="u"  format="ascii">-3.9370847189332442e-01  0.0000000000000000e+00  0.0000000000000000e+00  -3.8958549877264620e-01  -7.7807342472705809e-01  -7.7807342472705809e-01  -3.9018597139654937e-01  0.0000000000000000e+00  0.0000000000000000e+00  -3.9000518872310508e-01  -7.7807342472705809e-01  -7.7807342472705809e-01  -5.9511845390786478e-01  -5.9564348604018735e-01  -5.9506137842935269e-01  -5.9543537908067523e-01  -1.8272934156546014e-01  -1.8343254926514807e-01  -1.8273368419448760e-01  -1.8347847055817304e-01  -5.0404429604015932e-01  -5.0469173456536254e-01  -2.7402071769540154e-01  -2.7400828536796645e-01  -5.0460682331836015e-01  -5.0435366901380607e-01  -6.8625507585698986e-01  -6.8673758278870944e-01  -9.1649832472590148e-02  -9.1446099107546322e-02  -2.7437954647403606e-01  -2.7444946562131384e-01  -6.8715703115399385e-01  -6.8693644818784927e-01  -9.2067090905763802e-02  -9.1269246748640995e-02  -3.8756199247681039e-01  -2.2836387067041206e-01  -3.1883349655773530e-01  -1.3709211328462659e-01  0.0000000000000000e+00  -5.4989497204767834e-01  -2.2827337963963790e-01  -7.7807342472705809e-01  -3.1858529667962232e-01  -5.4990319936860721e-01  -4.5923001338040570e-01  -4.5921601932518774e-01  -6.4115890927051822e-01  -7.7807342472705809e-01  -6.4115430702833365e-01  -1.3698026285651332e-01  0.0000000000000000e+00  -7.0961166662090569e-01  -6.8585117623081074e-02  -7.0963500126509482e-01  -6.8497782687515663e-02  -3.6909591950252713e-01  -4.0716652266370967e-01  -3.6924439552304733e-01  -4.0715137068507479e-01  -7.3243221252073742e-01  -4.5360751812024848e-02  -7.3219097002607136e-01  -4.5303455448079358e-02  -3.8576118037533313e-01  -4.6618313389664247e-02  -7.3264949173677574e-01  -7.3235891092121397e-01  -7.7807342472705809e-01  -4.5537887143249536e-02  0.0000000000000000e+00  -1.8272971071889513e-01  -1.8768812775077975e-01  -2.2848315638252165e-01  -1.3676310343161413e-01  -5.9552021186608939e-01  -6.0055029580347075e-01  -6.4109269131535040e-01  -6.4119824903472289e-01  -5.0427240932633577e-01  -4.9924840962683398e-01  -4.5823258998471350e-01  -4.5777195771645912e-01  -5.9549821328857699e-01  -6.0054190279227504e-01  -6.4110420659704725e-01  -5.0429763481244116e-01  -4.9925280099789687e-01  -6.4070686566761237e-01  -5.5011294287483525e-01  -5.5033589617718048e-01  -4.5812077268520995e-01  -3.2066025524870034e-01  -3.2041824295139421e-01  -2.7384683367623291e-01  -2.7885254114705293e-01  -1.3722159889852412e-01  -2.2810209333352136e-01  -5.4948283329898884e-01  -4.5813400168348384e-01  -5.4958948888780612e-01  -1.3728998982018245e-01  -2.7404599593713075e-01  -2.6900892308738461e-01  -2.2822541942638411e-01  -3.2107018866559850e-01  -1.3743823483451548e-01  -1.8278202395951171e-01  -1.7772238903525989e-01  -3.2062605779884090e-01  -2.2826396713458838e-01  -4.1947767213718229e-01  -3.5492665276752250e-01  -4.2249359613967086e-01  -3.5262245069195353e-01  -6.6401497493235406e-01  -6.6396525450174138e-01  -3.7936811412248438e-02  -6.6397166353055537e-01  -7.7807342472705809e-01  -3.8282313407380114e-01  -3.4277220932169850e-01  -7.7807342472705809e-01  -3.9295856321507916e-01  -1.1417021637889577e-01  -1.1413975352610589e-01  -7.7807342472705809e-01  0.0000000000000000e+00  -3.7932306599380121e-02  -1.0608691036811124e-01  -1.1429186818193160e-01  -6.6391171112204050e-01  -7.0697966760623299e-01  -7.0702804789105034e-01  -4.3547059529477777e-01  -3.4239480064196681e-01  -4.3526107110203155e-01  -7.4292319766070625e-01  -7.4158307175264726e-01  -7.5371728897825715e-02  -7.5347109928033104e-02  -1.5143066627357205e-01  -3.2647853108340702e-02  -3.2577510443063062e-02  -7.3881948282666565e-01  -7.3882609148572531e-01  0.0000000000000000e+00  -3.2211397304203626e-01  -2.1496805538007313e-01  -5.3947868786616526e-01  -5.3649765409323003e-01  -2.4167178538223669e-01  -3.1843113791506650e-01  -4.6891485946753136e-01  -5.6330665161617666e-01  -4.6388097304391190e-01  -2.1785045714884249e-01  -5.6031426636769177e-01  -2.3876878162269929e-01  0.0000000000000000e+00  -1.4257275473929013e-01  -1.5070041087074157e-01  -1.5060148707332929e-01  -6.2904997227024995e-01  -6.2897202608271241e-01  -3.0637369225130556e-01  -4.7065430696306676e-01  -6.7537372742704727e-01  -7.2813636424202688e-02  -1.0188102120467261e-01  -7.9929686393105853e-02  -6.9821163226091520e-01  -6.7626503778662184e-01  -7.0478467182853188e-01  -1.0210462321963046e-01  -2.0548255784835934e-01  -5.6983562282652234e-01  -2.5111489010843874e-01  -5.3002494578250237e-01  -5.7279709376333310e-01  -5.2702422728320353e-01  -3.8791759017693417e-01  -3.9150739390852685e-01  -3.9333043274773238e-01  -4.6746627957742737e-01  -3.1054059716322679e-01  -6.3228121454793029e-01  -6.3227525337064661e-01  -2.5085523137737292e-01  -2.0558755300839215e-01  -4.3136762745206153e-01  -3.4582046724325349e-01  -3.8310011441767150e-01  -3.9386479410730013e-01  -3.7275286350361525e-01  -3.4671793875433365e-01  -4.3029898686389773e-01  -3.9229120861717903e-01  -4.3612248462652287e-01  -2.9221822313952667e-01  -4.4038878642955531e-01  -2.3335631232554280e-02  -7.4832552327477997e-01  -2.2425304508252211e-02  -7.4983003284183536e-01  -2.8008133939846580e-02  -2.3666972054491645e-02  -2.9678503444887716e-01  -3.4414809732561502e-01  -5.7599993711661424e-01  -5.2379878625800036e-01  -2.0226651859940828e-01  -2.9710068306420068e-01  -2.5434104254781897e-01  -5.1999694346398195e-01  -5.7273459292689866e-01  -1.6427587346454514e-01  -4.4147008051862120e-02  -3.4441960227958679e-01  -2.9712718881718736e-01  -4.8715726203146914e-01  -6.1251617386626767e-01  -6.1852716589974643e-01  -2.9126457540452150e-01  -7.5475351629866061e-01  -7.5476531802293434e-01  -2.4461245770813939e-01  -2.1213052143075989e-01  -4.8100563434163079e-01  -1.5972644609259365e-01  -3.9776853652471994e-01  -6.8635822328337981e-01  -2.4649726093708643e-01  -2.1017731317893543e-01  -7.5118155052292290e-01  -5.4546217943562951e-02  -4.9395149893812129e-01  -6.0590858487758925e-01  -6.0578032346394173e-01  -7.5941979452035979e-01  -1.1402431681548607e-01  -5.3815693834011247e-01  -3.7529632102401017e-01  -3.7617823036342685e-01  -3.6857862579898032e-01  -4.4707774960880647e-01  -3.8387575560070164e-01  -2.8541177030316395e-01  -6.0694471321749111e-01  -4.9280739422968639e-01  -1.7135058980586759e-01  -1.8016134499138692e-01  -4.8207655336014338e-01  -2.8117308740510710e-01  -6.1784513722309209e-01  -6.1787405556796304e-01  -2.4995507910921352e-01  -2.0665770024465091e-01  -1.9271196219152423e-01  -4.8040473076088819e-01  -4.9405464327666115e-01  -2.9964171230749331e-01  -1.6534101021315872e-01  -5.6918734728084575e-01  -2.9836128248458460e-01  -4.0593963887888201e-01  -2.5048912696181191e-01  -5.7239773404878602e-01  -5.2737182947100469e-01  -6.9467180675209150e-01  -5.2818811255269882e-01  -5.7160515892486941e-01  -1.5687067723357032e-01  -1.5950116313761353e-01  -7.3584824379954050e-01  -1.5958544691771062e-01  -1.7406686168488236e-01  -5.3250015992709643e-01  -4.4298522609735580e-01  -4.3568587367621764e-01  -9.4986436787735717e-02  -5.8241994138744890e-01  -2.6077642750896840e-01  -5.1735015039194276e-01  -1.9589287333364372e-01  -2.3014043848874358e-02  -2.3051022904166524e-02  -3.5722444174277468e-01  -1.8715908473698073e-01  -5.9199209235459083e-01  -2.7620313481810249e-01  -2.7820264436201253e-01  -4.7854061936150771e-01  -2.1159425448791366e-01  -2.4505823792124723e-01  -2.6816059027508182e-01  -7.1025034964405731e-01  -7.2044545887875089e-01  -5.0255113757382708e-01  -5.9727316157132071e-01  -3.9791629579171078e-01  -5.8313510318295791e-01  -5.1664456752842747e-01  -1.5909320434630914e-01  -4.5935821990888748e-02  -6.1102782526178831e-02  -4.6558035030742052e-02  -6.8500165651761355e-02  -5.2116878970932534e-02  -2.2473926389548551e-02  -2.4588975397254593e-02  -3.6339877192888825e-01  -3.3505637581600084e-01  -4.1566280543377127e-01  -6.9001301990737757e-02  -4.8044040442598263e-01  -1.2566333136400770e-01  -3.8646139925857764e-01  -7.9871776810605449e-02  -2.9742885878961478e-01  -7.0936516779207048e-01  -7.2507736309280524e-01  -7.2594511116466975e-01  -2.5079975663244808e-01  -6.1891312520099406e-01  -4.8080226861729752e-01  -6.8179275668871026e-02  -4.8094120108750826e-01  -7.5574283080340665e-01  -7.5585771809962077e-01  -2.9770948442999207e-01  -5.2762773910464289e-01  -5.7230951131061669e-01  -5.7263188492815054e-01  -5.2647481736701163e-01  -5.2713017884226998e-01  -5.7341390302882844e-01  -6.8717880280876761e-02  -4.3667319151113210e-01  -3.4698659431153067e-01  -4.3680562846774018e-01  -6.1872292293896591e-01  -6.6367703610589157e-01  -1.1406942965927740e-01  -1.1396723793969624e-01  -1.1426737153144845e-01  -3.4401531436522115e-01  -6.6394967601294674e-01  -6.6381729473149853e-01  -7.1035734965487451e-01  -6.6376758435101613e-01  -2.0550394452388573e-01  -2.5122217619809561e-01  -4.8099443411650572e-01  -4.3608878009125523e-01  -2.2281775161782216e-02  -6.1864636913465820e-01  -2.0591237806049587e-01  -2.0580394829337745e-01  -7.0934647607315049e-01  -3.4173108840989419e-01  -4.1271746930403080e-01  -3.3214350787127950e-01  -2.9797371252737237e-01  -3.7457603526449074e-01  -4.7116179023206459e-02  -2.2578411089294030e-02  -3.0850818306753275e-01  -6.2970074790495711e-01  -7.1731420492884712e-01  -8.9939015143245427e-02  -9.4040372458003479e-02  -1.2624298824215407e-01  -3.6083174496885567e-01  -6.8513795144476120e-01  -6.8795842948432329e-01  -4.1662117493899103e-01  -5.9487101244896180e-02  -5.3975021165109389e-02  -2.6072812301227721e-01  -6.1914560061946666e-01  -6.2236815042397975e-01  -8.3624477883467691e-02  -1.7211598496191860e-01  -4.0048863512354316e-01  -3.9408180028238859e-01  -3.8165526465078620e-01  -3.8927299355949779e-01  -1.5121120139464336e-01  -6.9818426749627649e-01  -7.1844076605467277e-01  -7.1801439896084840e-01  -6.8536276507245397e-01  -6.5257434629936273e-01  -1.0262289221531726e-01  -1.0275884247008288e-01  -3.3239057900909508e-01  -3.5817759694711948e-01  -7.5762456087172725e-01  -4.4471265409670085e-01  -4.1390324436208570e-01  -3.2982606324114866e-01  -4.1692140753792284e-01  -4.4784557580216156e-01  -6.5061569250696971e-01  -6.5060076210956819e-01  -3.5727917892447603e-01  -4.5402387190703647e-01  -1.2097458290655351e-01  -6.8293847555138509e-01  -6.6020186133811509e-01  -6.9086502225450397e-01  -6.5251381721898138e-01  -6.7959724742248695e-01  -6.6007774931098129e-01  -4.1901542940037534e-01  -4.4600065980963866e-01  -3.3239523977074958e-01  -3.2627592437587288e-01  -6.4491948434935309e-01  -1.1791791145237622e-01  -1.3128022135916345e-01  -1.2076246870578430e-01  -1.3140660976904581e-01  -1.3363249660096654e-01  -9.5201236538789508e-02  -7.5764176796400640e-01  -6.7536389281587583e-01  -6.5256710258376538e-01  -5.4004123760638130e-02  -7.5887955579452515e-01  -3.3513908766392347e-01  -3.5778701877592523e-01  -3.7571244488627370e-01  -1.6147616151376687e-01  -3.6964593339734597e-01  -6.2967420414737529e-01  -4.6974558328459592e-01  -7.3031285036429960e-01  -6.9651712262608800e-01  -1.3299006551643747e-01  0.0000000000000000e+00  -9.4548085993729908e-02  -7.2093390239854704e-01  -1.4082569385519667e-01  -4.9825731859168709e-01  -4.6981458677310567e-01  -1.5162620034122509e-01  -6.3224074420612986e-01  -7.7807342472705809e-01  -1.9391501989256546e-01  -2.7158067974496175e-01  -3.7631335549269651e-01  -4.1488702974605318e-01  -3.0979533519798319e-01  -5.9305477239660798e-01  -5.0676790319327880e-01  -7.5751716216548459e-01  -7.6031386534867940e-01  -7.5909381770841611e-01  -1.5514332926041713e-01  -1.7295265329992947e-02  -7.2219405771865675e-01  -7.5880372235358506e-01  -6.2497466874700891e-01  -1.8152752968551063e-02  -5.1888649268340348e-01  -5.3846305290427177e-01  -5.6125100245983428e-01  -5.5245878523518233e-01  -5.4888523568273984e-01  -2.2990760864304646e-01  -2.3609371441462054e-01  -2.2669416992773461e-01  -2.2053985760543293e-01  -1.9585378140554099e-01  -2.6076122487157227e-01  -5.8241140218890364e-01  -5.1822770553699260e-01  -8.3300351406832007e-02  -9.4622018757402129e-02  -7.2877830199797444e-01  -1.8602268999819660e-01  -2.1089651992847608e-01  -2.3127408053242032e-01  -5.3178171687654596e-01  -5.6793367682427320e-01  -2.3973986081207585e-01  -4.6991940272602822e-01  -5.5228768402620909e-01  -5.8397009975811465e-01  -5.1564015535209207e-01  -4.0474224745584075e-01  -5.5226894137470628e-01  -2.2954610752894408e-01  -2.2710199468697903e-01  -5.4681789966187655e-01  -3.0873615688841394e-01  -7.7807342472705809e-01  -5.6782811579656110e-02  0.0000000000000000e+00  -1.6389613736404639e-02  -1.8526152381516097e-02  0.0000000000000000e+00  -1.3966773834670435e-01  -1.6950354673978127e-01  -7.3951490021935706e-01  -5.1091236341658930e-01  -5.8904289354205452e-01  -2.6092105199417520e-01  -7.3931191112431127e-01  -7.0619543401688167e-01  -2.5861187341594594e-01  -4.8185078389850888e-01  -1.6059662353608575e-01  -3.7970679109694411e-01  -6.4715080514354562e-01  -4.8778308394393627e-01  -1.9927243310606937e-01  -4.6086995353414739e-01  -6.4720546781160981e-01  -4.2725490078272033e-01  -3.4103721559885897e-01  -3.1766834471171679e-01  -7.2820795686701412e-01  -3.7716389738774503e-01  -4.4490124265304803e-01  -4.3930614222365982e-01  -4.2759644659476764e-01  -3.5636146596524398e-01  -4.4443317027886259e-01  -3.0800951770310681e-01  -2.9765244985955180e-01  -3.9520436792388991e-01  -3.9431001032861501e-01  -3.7233598756444819e-01  -3.6577998706730136e-01  -3.5852869559191008e-01  -3.1607317342656632e-01  -4.6375840214148989e-01  -3.6449151850406808e-01  -3.5958109002081001e-01  -4.0893665383519384e-01  -4.0324652285707074e-01  -3.9632939702318504e-01  -3.6984461722735146e-01  -4.1303602063338268e-01  -4.1024745289000858e-01  -3.8715982651962216e-01  -3.8883457128258847e-01  -3.8732057246935736e-01  -3.6745411504617664e-01  -3.8765667682862182e-01  -3.8186556166253532e-01  -3.8599993583308095e-01  -3.9109495462964328e-01  -3.9613135829289753e-01  -4.4725657592624429e-01  -3.5179283444475223e-01  -4.6757445939548758e-01  -4.8140034973228457e-01  -3.4454956422941435e-01  -3.3248196741300318e-01  -2.9811378269584649e-01  -2.9469457085129358e-01  -4.3154520717013412e-01  -3.1231563075110547e-01  -3.0935944897251272e-01  -3.0731014334887036e-01  -4.5060961336674232e-01  -4.5328910943085066e-01  -3.4647158004820999e-01  -3.8025761062024260e-01  -3.8285789628347949e-01  -3.8198176772666098e-01  -3.9103533170318011e-01  -3.1983738670482231e-01  -3.4553848026259942e-01  -3.9399660214727722e-01  -3.9844164443856872e-01  -4.7130255115484698e-01  -3.4390821580482472e-01  -4.3347661053883146e-01  -4.2494571962510830e-01  -4.3287360113404083e-01  -3.5751823026913204e-01  -4.5521883562619536e-01  -4.7573974836975214e-01  -4.6882599106453449e-01  -4.7056418494254970e-01  -4.6492968681835467e-01  -4.8219299356969758e-01  -4.8753233819640790e-01  -4.0160895398339891e-01  -3.9969762616048071e-01  -4.6973369755412481e-01  -4.3109886938749353e-01  -3.3634816553722263e-01  -3.7166199339319517e-01  -3.8901570725648210e-01  -3.8642008408806566e-01  -4.0225041199282940e-01  -4.0570163599215625e-01  -3.9629366390152176e-01  -3.5558291383570151e-01  -3.4598317141097729e-01  -3.3321662158015874e-01  -4.4017234134159122e-01  -4.5305476523966559e-01  -4.0103390790225035e-01  -3.8875447072925368e-01  -4.2743411272813098e-01  -3.2830441630889301e-01  -3.2165933934226787e-01  -3.0931751496635029e-01  -3.3107193889196207e-01  -3.0491482343397669e-01  -2.9546550078849781e-01  -3.8552041841772006e-01  -4.0278990342488974e-01  -4.0754786397428616e-01  -3.5658805213425399e-01  -3.4816519911607319e-01  -3.6842092043778524e-01  -3.9477282353870102e-01  -3.8237326735718180e-01  -3.2962828610526307e-01  -4.1750662776384651e-01  -4.2557792047089960e-01  -3.7771622343783462e-01  -3.5020809011632115e-01  -4.1853973343601497e-01  -4.6334228272196509e-01  -4.8334793873792353e-01  -4.7054737138269287e-01  -4.5147297138723630e-01  -3.7598941133216324e-01  -3.5491954589629299e-01  -4.2357021943635403e-01  -4.4612679618701506e-01  -3.6013512726947733e-01  -4.4951382070643875e-01  -4.3750234383902614e-01  -2.9875675587278333e-01  -2.8790628047164613e-01  -3.1447622615404097e-01  -3.6699411592945602e-01  -3.2024954158701252e-01  -3.2117371999340638e-01  -3.2638545159773791e-01  -3.3198707208874850e-01  -3.5815746232285522e-01  -4.2589227812234270e-01  -3.8685677779491534e-01  -4.2502107434488751e-01  -4.4378669408169003e-01  -4.2831397649465497e-01  -3.1564391263622343e-01  -3.3608635601771558e-01  -3.2780716091922268e-01  -3.5773975678353753e-01  -3.7382674560848134e-01  -3.7982131772545619e-01  -4.5806673928086633e-01  -4.5868051473637544e-01  -3.8483630209184050e-01  -3.8921476867606403e-01  -4.2446652634076693e-01  -3.2528465065596623e-01  -3.8347749138468207e-01  -3.7773457852210401e-01  -4.7474850654468964e-01  -4.5114293180594595e-01  -4.5309707949865180e-01  -4.1642985761475854e-01  -4.1810745110604042e-01  -3.4505019156436079e-01  -3.2865291907140659e-01  -3.2687948008946932e-01  -3.7924729955663278e-01  -3.7498710099549976e-01  -3.8199259742031294e-01  -3.8807994993478445e-01  -3.8867416149786244e-01  -3.9830935813530360e-01  -4.0220936918212541e-01  -3.7496940239355853e-01  -3.7728588555864290e-01  -3.6999415143609876e-01  -3.6412949821409785e-01  -3.6411974952007059e-01  -3.6067831228599107e-01  -3.5535092280369712e-01  -3.6743275017606869e-01  -3.7108460829530571e-01  -4.1223085522520081e-01  -3.9117784690267493e-01  -3.9877299157256152e-01  -4.0125894861646516e-01  -3.9748997079845200e-01  -4.0150244119934292e-01  -3.7793544019070996e-01  -3.6367572219232003e-01  -4.1039250427700391e-01  -4.0743384440916164e-01  -3.7927101993360413e-01  -3.8456463034188620e-01  -3.8232415104250278e-01  -3.8813512914417014e-01  -3.9446710202695556e-01  -3.9336339359857408e-01  -3.8663422717011942e-01  -3.8566289035917167e-01  -3.8963290459478500e-01  -3.7201071074243852e-01  -3.9194078807707161e-01  -3.8424914289165918e-01  -3.8957962915654881e-01  -3.9107384132242101e-01  -3.9502501782737454e-01  -3.8879185751483814e-01  -3.8806008506203538e-01  -3.8083514812461350e-01  -3.8624900335994244e-01  -3.8173655510334492e-01  -3.7880996490757524e-01  -3.8543635343045801e-01  -3.8320937643350000e-01  -3.7950307867169364e-01  -3.8311953489854894e-01  -3.8310008775900078e-01  -3.9612049035184016e-01  -3.9120750664012610e-01  -3.9718585375386817e-01  -3.9085209062982756e-01  -4.0044882206687910e-01  -4.0399942292142577e-01  -4.0721348927905981e-01  -4.0135697964077677e-01  -3.9556849139588773e-01  -3.6457739853544946e-01  -3.7345169520505656e-01  -3.7566982651599196e-01  -3.8728044804106199e-01  -3.8762597956642697e-01  -3.9044685925393446e-01  -3.8800963658470683e-01  -3.8642445991007912e-01  -4.1172862402311894e-01  -3.9907729904970973e-01  -4.0994621766698364e-01  -4.0218389881325667e-01  -3.9485598240361175e-01  -3.8752314346854799e-01  -4.1173178352059769e-01  -4.0382191338427498e-01  -4.0649179772018906e-01  -3.6458683522453966e-01  -3.7234428970807010e-01  -3.7336194358663344e-01  -3.6648708869545105e-01  -3.8907967838873536e-01  -3.7828366438001637e-01  -3.7260001564409567e-01  -3.7628898754825307e-01  -3.6490620857986278e-01  -3.5927517355186200e-01  -3.8585154820411083e-01  -3.8383507116662047e-01  -3.8767736406674708e-01  -3.8573192061048311e-01  -3.9169969941279398e-01  -3.8839171573298986e-01  -3.8010421544395229e-01  -3.8110670103015121e-01  -4.1254029604100811e-01  -4.1243650935535869e-01  </DataArray> 
</PointData> 
</Piece>
</UnstructuredGrid>
</VTKFile>