<?xml version="1.0"?>
<VTKFile type="UnstructuredGrid"  version="0.1"  >
<UnstructuredGrid>
<Piece  NumberOfPoints="778" NumberOfCells="1401">
<Points>
<DataArray  type="Float64"  NumberOfComponents="3"  format="ascii">1 -1 0  6 -1 0  6 1 0  1 1 0  1 6 0  -1 6 0  -1 1 0  -6 1 0  -6 -1 0  -1 -1 0  -1 -6 0  1 -6 0  1 3.5 0  -1 3.5 0  -1 -3.5 0  1 -3.5 0  3.5 -1 0  3.5 1 0  -3.5 -1 0  -3.5 1 0  -1 -2.25 0  1 -2.25 0  2.25 -1 0  2.25 1 0  -1 2.25 0  1 2.25 0  -1 4.75 0  1 4.75 0  -4.75 -1 0  -4.75 1 0  -2.25 1 0  -2.25 -1 0  1 -4.75 0  -1 -4.75 0  4.75 1 0  4.75 -1 0  0 0 0  -2.875 0 0  -1.625 0 0  -4.125 0 0  -6 0 0  0 2.875 0  2.875 0 0  0 6 0  1.625 0 0  0 -2.875 0  0 -1.625 0  0 1.625 0  0 4.125 0  0 -6 0  0 -4.125 0  4.125 0 0  6 0 0  -0.109375 5.0625 0  -5.0625 -0.109375 0  -0.109375 -5.0625 0  5.0625 0.109375 0  0.8125 -0.1875 0  -0.1875 -0.8125 0  -0.8125 0.1875 0  -0.1875 0.8125 0  1 5.375 0  -5.375 1 0  1 -5.375 0  5.375 -1 0  0.53515625 0.46484375 0  -5.375 -1 0  -1 5.375 0  -1 -5.375 0  -0.5 -6 0  5.375 1 0  6 0.5 0  3.5 0.3046875 0  3.43125 -0.34765625 0  2.875 -1 0  4.125 1 0  0.3046875 3.5 0  -0.34765625 3.56875 0  -1 4.125 0  1 4.125 0  -0.3046875 2.25 0  0.34765625 2.18125 0  1 1.625 0  -1 -1.625 0  -0.3046875 -3.5 0  0.34765625 -3.56875 0  1 -4.125 0  0.3046875 -2.25 0  -0.34765625 -2.18125 0  -1 -4.125 0  -1 -2.875 0  1 -2.875 0  1 -1.625 0  1.625 -1 0  1.625 1 0  2.25 0.3046875 0  2.18125 -0.34765625 0  4.125 -1 0  2.875 1 0  1 2.875 0  -1 1.625 0  -1 2.875 0  -4.125 -1 0  -2.25 0.3046875 0  -2.31875 -0.34765625 0  -2.875 -1 0  -1.625 1 0  -4.125 1 0  -3.5 0.3046875 0  -3.56875 -0.34765625 0  -1.625 -1 0  -2.875 1 0  0.380626321794301 1.06853329530276 0  -1.110819327731092 -0.3739495798319328 0  0.3739495798319328 -1.110819327731092 0  1.151210293219304 0.3991939332620648 0  -0.5 -4.4375 0  0.5 -4.4375 0  5.481553398058253 -0.3712833737864077 0  0.5 4.4375 0  0.5 6 0  -0.522503783594538 -0.3265648647465863 0  -1.3125 0.5 0  -0.5 6 0  0.3265648647465863 -0.522503783594538 0  4.4375 0.5 0  4.4375 -0.5 0  0.5 -6 0  -6 -0.5 0  -5.481553398058253 0.3712833737864077 0  -4.55 -0.4296875 0  -4.4375 0.5 0  -0.5 4.4375 0  0.4792930825242718 5.026881067961165 0  0.4792930825242718 -5.026881067961165 0  -0.5 1.3125 0  1.3125 -0.5 0  -0.5 -1.3125 0  0.25 5.518539952962044 0  0.2125133872612723 -5.500076563152851 0  4.969341874373811 -0.5152550785163683 0  -4.969341874373811 0.5152550785163683 0  3.927189744345589 -0.4712876597840069 0  -5.554036458333333 -0.25 0  5.554036458333333 0.25 0  -0.4690710616438356 -5.462756849315069 0  -0.4690710616438356 5.462756849315069 0  -6 0.5 0  -1.59556436210848 -0.5 0  -3.058421751829955 -0.5 0  -0.5 2.731982421875 0  0.5 2.691578248170045 0  2.691578248170045 -0.5 0  1.641211254104555 0.5 0  0.5 -1.768017578125 0  0.5 -3.058421751829955 0  0.5 1.699267578125 0  3.018017578125 0.5 0  -0.5 -3.018017578125 0  -2.731982421875 0.5 0  6 -0.5 0  -4.050017120925308 -0.5006099332648871 0  -3.940668202764977 0.5371363767281105 0  3.940668202764977 0.5371363767281105 0  0.4517449476047904 3.958458083832335 0  -0.4517449476047904 -3.958458083832335 0  -1.809331797235023 0.5371363767281105 0  -0.4517449476047904 1.791541916167665 0  -0.0546875 4.59375 0  -5.006445312499999 -0.58984375 0  4.605643203883496 -0.04725424757281554 0  4.90625 0.5546875 0  -0.5546875 4.90625 0  0.04725424757281554 -4.605643203883496 0  -0.586116118210531 -4.995821561900013 0  -4.603710222472543 0.04846236095466061 0  -3.1875 0.65234375 0  0.6163907621110913 3.147502300973589 0  2.5625 0.65234375 0  0.6163907621110913 -2.602497699026411 0  -0.637456713551384 3.189259902731882 0  -0.637456713551384 -2.560740097268118 0  -0.34765625 0.34765625 0  -0.639453125 0.708203125 0  0.089630126953125 0.437286376953125 0  -0.4238281249999999 -1.746875 0  1.746875 -0.4238281249999999 0  -0.4238281249999999 4.003125 0  0.4238281249999999 -4.003125 0  -2.5625 -1 0  3.1875 -1 0  -0.09375 -1.21875 0  1.21875 -0.09375 0  0.4020305405760241 -0.1120343241705621 0  -0.6280191027904287 -0.7577505545748082 0  0.90625 -0.59375 0  -1.205500904741459 0.03633725387965409 0  -0.02129048848213058 1.202028574265107 0  -0.1120343241705621 -0.4020305405760241 0  1 1.3125 0  -2.003587563743074 -0.6442361556699288 0  0.6640077663259718 -1.395873598614549 0  5.6875 -1 0  0.6308138580859101 -5.592151086468728 0  -5.6875 -1 0  0.6568032075915271 5.612942566073222 0  5.616530031741774 0.6612875396772174 0  -5.6875 1 0  1.9375 1 0  -1.3125 -1 0  0.1524679547155687 -3.232579139388032 0  0.1524679547155687 2.517420860611968 0  -3.232579139388032 -0.1524679547155687 0  -1.932320553757026 -0.252759244693845 0  2.517420860611968 -0.1524679547155687 0  -0.04776045819569434 -2.464949198504599 0  -0.2420369079104247 3.187693796852321 0  3.751304711039982 -0.1203080877045035 0  -5.397601941771943 -0.609026059866711 0  1.3125 1 0  1.9375 -1 0  -0.6946315101963667 -2.018229242739021 0  -0.6946315101963667 3.731770757260979 0  1 -3.8125 0  2.014364435550335 0.6166648446293641 0  -1 5.6875 0  -1 -5.6875 0  -2.653476149871182 -0.5942957192996303 0  3.096523850128818 -0.5942957192996303 0  1 1.9375 0  -3.8125 -1 0  0.586975531244212 -0.7975955463807081 0  -0.2946248980953088 -4.743710873809568 0  2.625453376770019 0.2814788818359375 0  -3.124546623229981 0.2814788818359375 0  -0.1204856417894853 5.631800603217465 0  5.253862011026742 0.6581468962876398 0  -0.65234375 2.108701557941197 0  0.65234375 3.641298442058803 0  -0.65234375 -3.641298442058803 0  -0.25 -5.744880569758637 0  -4.4375 -1 0  -0.3166212631734941 -2.713595940002554 0  0.6591479224207506 0.1324305912687024 0  0.8660781906552419 0.6468634238104103 0  -0.9887189158197679 0.6452930723873549 0  0.3149351927204296 -1.460971774996065 0  -0.3572852727880474 -0.009629022788047503 0  2.09375 -0.6866724363772454 0  0.6866724363772454 -3.65625 0  0.6866724363772454 2.09375 0  -3.65625 -0.6866724363772454 0  -3.5371337890625 0.65234375 0  -0.1389584113023952 1.944025352615082 0  -2.151744288472698 0.65234375 0  -0.1389584113023951 -3.805974647384918 0  0.1389584113023951 3.805974647384918 0  -2.578772109813904 0.1857224367977529 0  3.171227890186096 0.1857224367977529 0  3.360315647536819 0.65234375 0  0.1857224367977528 -1.921227890186096 0  0.65234375 -2.110315647536819 0  1.894016528727564 0.2415406141485869 0  -3.738232421875 0 0  0.2516875549238616 3.139069895099618 0  -1.913724396854074 0.2011142179916434 0  0.1669456568161915 0.7843410671359501 0  -2.5625 1 0  -1 -3.1875 0  -1 2.5625 0  0.1736601499778735 4.857955663330752 0  -0.1893536587212888 2.577300639071919 0  -0.1893536587212888 -3.172699360928081 0  3.852271904453858 0.206603749322895 0  -3.8125 1 0  -0.1250095034621793 -5.421707592768541 0  3.8125 -1 0  3.617304217264373 -0.6578427703661498 0  0.2630176195580202 -2.636558318495885 0  0.2674330357770522 1.399517071108871 0  0.631726413079416 1.339254523727593 0  4.700571879807737 0.2813704945051134 0  0.7143844363649634 -3.319538455208831 0  2.430461544791169 -0.7143844363649634 0  0.7143844363649634 2.430461544791169 0  -3.319538455208831 -0.7143844363649634 0  5.687045771608623 -0.6520598572553891 0  -5.687045771608623 0.6520598572553891 0  -1.15625 -0.7048248829733235 0  3.438284572973296 -0.01860298867862281 0  -0.03021088078697859 3.451572359862192 0  2.216682837011589 -0.02159585961918548 0  -2.191580885932936 -0.03126387444658879 0  0.1857410764408683 1.895679405349457 0  3.103473238297955 -0.253270943723272 0  -2.646526761702045 -0.253270943723272 0  -2.333137350671861 -0.6791984914172315 0  -1 5.0625 0  -0.6971235589909319 5.213002544375844 0  0.01618705363819947 2.225929180591695 0  0.01618705363819947 -3.524070819408305 0  0.5690054882403073 0.7951310720450595 0  -0.5764940424412852 -3.329579265180942 0  -0.5764940424412852 2.420420734819058 0  3.8125 1 0  -5.372163860234628 0.04365139563106807 0  5.164108319316826 -0.225040894204947 0  -5.361952437854323 0.6744012088984681 0  -5.0625 1 0  5.286835586913878 -0.6616705837083201 0  -5.692815197359722 0.1186699900166531 0  5.663425996156958 -0.07763197815533956 0  -0.9219866027132193 -0.1143045829323572 0  -1.394333629759332 -0.2233077430199216 0  0.09322478991596644 -0.9616596638655462 0  5.0625 -1 0  -0.14412109375 -1.92169189453125 0  -4.28125 -0.7212148987671345 0  0.2649796277366407 0.1735162902120744 0  -4.907855692236596 0.1868230509619793 0  -1.9375 1 0  1 5.0625 0  0.6915124486819284 -5.272938212550202 0  0.683483242673902 5.284948082526911 0  2.5625 -1 0  -1 -3.8125 0  -1 1.9375 0  5.0625 1 0  -1 -1.9375 0  1 5.6875 0  1 -5.6875 0  -1.9375 -1 0  -1 -2.5625 0  -1 3.1875 0  1 -3.1875 0  1 -2.5625 0  1 2.5625 0  1 3.1875 0  -5.0625 -1 0  -1 -1.3125 0  1.3125 -1 0  -1 1.3125 0  -1 3.8125 0  -1 4.4375 0  -4.4375 1 0  4.4375 -1 0  4.4375 1 0  -1.3125 1 0  1 4.4375 0  1 -4.4375 0  -1 -5.0625 0  -1 -4.4375 0  -3.1875 1 0  2.5625 1 0  1 -1.9375 0  1 -1.3125 0  5.6875 1 0  1 3.8125 0  3.1875 1 0  -3.1875 -1 0  1 -5.0625 0  1.35138038998199 0.6675097549271188 0  -0.465625 0.986328125 0  1.435958105992309 0.2563920171199723 0  1.915914614192913 -0.145782394639918 0  -0.8764440609469509 -0.5746869313612541 0  5.355194559946098 0.01566259380337612 0  -5.69333042954964 -0.5242868300459975 0  1.78125 -0.7320750794491524 0  0.7320750794491525 -3.96875 0  -0.3959075548864684 5.166422468926435 0  -4.770522389068053 -0.2123670725088856 0  -4.714160156249999 -0.69234375 0  -4.273484403713342 -0.278160994327167 0  0.9642590244517505 0.08196089404241463 0  0.3500261717645397 -4.727285205957206 0  0.6740868006020392 -4.765147848348443 0  0.6797550207247084 -1.089747806381148 0  -5.186479934354063 0.3046329157552757 0  -5.263288238215326 -0.3369092276308425 0  -2.433484016245305 0.5442571297016638 0  0.1707808983307866 -3.82363304980935 0  -0.1554012991031027 3.867535742674252 0  4.855508096805579 -0.2283975605264581 0  3.644517238097614 0.5646428152488787 0  0.05699603874439441 -0.6452791208413911 0  -0.3550018917972689 -0.5695324323732931 0  0.6
[...]
<PointData  Scalars="u"> 
<DataArray  type="Float64"  Name="u"  format="ascii">-4.1175676378499726e-01  0.0000000000000000e+00  0.0000000000000000e+00  -4.0765002528727423e-01  -8.1434113069465086e-01  -8.1434113069465086e-01  -4.0824279392297391e-01  0.0000000000000000e+00  0.0000000000000000e+00  -4.0806972034404010e-01  -8.1434113069465086e-01  -8.1434113069465086e-01  -6.2272187969143844e-01  -6.2329269879510052e-01  -6.2265638640918874e-01  -6.2305593959102190e-01  -1.9140657505694139e-01  -1.9210254373212873e-01  -1.9138266450420918e-01  -1.9213994124777012e-01  -5.2732146756416809e-01  -5.2802848547649683e-01  -2.8698457376969067e-01  -2.8698522165027007e-01  -5.2794928428409438e-01  -5.2766555765854695e-01  -7.1815811086853842e-01  -7.1867691421557989e-01  -9.5971104100394597e-02  -9.5766596203276433e-02  -2.8738062477576748e-01  -2.8742259126944036e-01  -7.1912166559511614e-01  -7.1886475162181140e-01  -9.6450330829003214e-02  -9.5603505753410811e-02  -4.0579509763202559e-01  -2.3917049034925641e-01  -3.3390013212876901e-01  -1.4358044551232460e-01  0.0000000000000000e+00  -5.7537170308320196e-01  -2.3908384115821105e-01  -8.1434113069465086e-01  -3.3364177792597183e-01  -5.7537847399004882e-01  -4.8047655935782330e-01  -4.8046503309892552e-01  -6.7095034910610318e-01  -8.1434113069465086e-01  -6.7093957531187387e-01  -1.4347041173610720e-01  0.0000000000000000e+00  -7.4263860950376892e-01  -7.1833451784773114e-02  -7.4266425948090675e-01  -7.1743141335425323e-02  -3.8648209624458335e-01  -4.2617905206708945e-01  -3.8663824154812598e-01  -4.2616450647752757e-01  -7.6653084316790721e-01  -4.7541054190731860e-02  -7.6627562326558762e-01  -4.7455363318863963e-02  -4.0387426370079749e-01  -4.8820211811224104e-02  -7.6677648119502373e-01  -7.6646489702327703e-01  -8.1434113069465086e-01  -4.7676156180428211e-02  0.0000000000000000e+00  -1.9138703777967317e-01  -1.9657797178968092e-01  -2.3928577475037471e-01  -1.4324518796713165e-01  -6.2315665496149197e-01  -6.2842258966388653e-01  -6.7088339974112876e-01  -6.7100004982542993e-01  -5.2759764882827820e-01  -5.2233605899200974e-01  -4.7931610400763419e-01  -4.7885474453007182e-01  -6.2312702302615663e-01  -6.2840957328933345e-01  -6.7089400310039671e-01  -5.2761967168322033e-01  -5.2233552520221882e-01  -6.7047571862289157e-01  -5.7561702879937349e-01  -5.7583889979979197e-01  -4.7920705625842991e-01  -3.3587198202744811e-01  -3.3561287916716681e-01  -2.8680957771964483e-01  -2.9204959353466686e-01  -1.4372590662703133e-01  -2.3892373990428944e-01  -5.7492489011921422e-01  -4.7919013897110424e-01  -5.7503468376566502e-01  -1.4378662660456351e-01  -2.8701376558508412e-01  -2.8173988040167230e-01  -2.3903739437509272e-01  -3.3628290346319950e-01  -1.4391335640122396e-01  -1.9143113538050016e-01  -1.8613223037653706e-01  -3.3583530857175808e-01  -2.3907729671035999e-01  -4.3897252122799957e-01  -3.7166019513124887e-01  -4.4211033350641149e-01  -3.6925144400872806e-01  -6.9487838060008555e-01  -6.9482867002044779e-01  -3.9735060273180092e-02  -6.9484126357003495e-01  -8.1434113069465086e-01  -4.0082494665533058e-01  -3.5896030609228391e-01  -8.1434113069465086e-01  -4.1138996220317731e-01  -1.1958263930464194e-01  -1.1954825607124295e-01  -8.1434113069465086e-01  0.0000000000000000e+00  -3.9731108089726873e-02  -1.1110692712361328e-01  -1.1969708469238309e-01  -6.9477319516749414e-01  -7.3987993504523786e-01  -7.3993119850881428e-01  -4.5559771947430244e-01  -3.5855984221899917e-01  -4.5537335098375153e-01  -7.7752596703167753e-01  -7.7612224858616408e-01  -7.8947171466304797e-02  -7.8913221097441880e-02  -1.5860558744781131e-01  -3.4195470933964446e-02  -3.4117473727803924e-02  -7.7323002816154540e-01  -7.7323630330365634e-01  0.0000000000000000e+00  -3.3734510239906718e-01  -2.2513996687252757e-01  -5.6446340216729540e-01  -5.6133638517202789e-01  -2.5311447745064086e-01  -3.3349397143305165e-01  -4.9056845524327347e-01  -5.8941680742959712e-01  -4.8530292930495511e-01  -2.2817355353637112e-01  -5.8627715196255881e-01  -2.5006513691241755e-01  0.0000000000000000e+00  -1.4932037175282611e-01  -1.5782474520435130e-01  -1.5772758498992631e-01  -6.5827123649107544e-01  -6.5817881867526196e-01  -3.2087427292341331e-01  -4.9239906800919764e-01  -7.0678047205026062e-01  -7.6255100186745611e-02  -1.0670959376878109e-01  -8.3715467202772176e-02  -7.3069359857091265e-01  -7.0771199580020272e-01  -7.3758591337685364e-01  -1.0693893657243608e-01  -2.1521184546448374e-01  -5.9625393981043306e-01  -2.6300903440275880e-01  -5.5455399720641341e-01  -5.9934837542527186e-01  -5.5141590826100684e-01  -4.0614799304726223e-01  -4.0982893727877429e-01  -4.1179275174550495e-01  -4.8905748323126724e-01  -3.2522903338180248e-01  -6.6165329657074068e-01  -6.6164208121472734e-01  -2.6271651337995439e-01  -2.1532996713314884e-01  -4.5138512074273879e-01  -3.6213949734385614e-01  -4.0112775104898007e-01  -4.1228382072489983e-01  -3.9025056378754436e-01  -3.6307663032576143e-01  -4.5028068686677103e-01  -4.1071158393925478e-01  -4.5587605829309019e-01  -3.0605443217370637e-01  -4.6070859062905856e-01  -2.4402444067337593e-02  -7.8318466074967763e-01  -2.3477560252202274e-02  -7.8476246829677143e-01  -2.9324819403168997e-02  -2.4777120128775372e-02  -3.1086091611315519e-01  -3.6053944519201830e-01  -6.0270847550087925e-01  -5.4804417835240804e-01  -2.1183821443375236e-01  -3.1115428470482903e-01  -2.6638135452509543e-01  -5.4406046101398930e-01  -5.9928939137356585e-01  -1.7205986347067553e-01  -4.6237637930723732e-02  -3.6081355702087131e-01  -3.1121333652810618e-01  -5.0964278128855900e-01  -6.4096005457425398e-01  -6.4724944403959961e-01  -3.0505240059295347e-01  -7.8992728786472832e-01  -7.8993318607894647e-01  -2.5618609738525217e-01  -2.2217375481674181e-01  -5.0318750738569296e-01  -1.6727752712329899e-01  -4.1633913054899335e-01  -7.1828464416770632e-01  -2.5816872097779908e-01  -2.2012173683359676e-01  -7.8617508657851387e-01  -5.7123887580276839e-02  -5.1677522550081278e-01  -6.3403312265042799e-01  -6.3389427140968846e-01  -7.9480356405834818e-01  -1.1942174091346477e-01  -5.6307549414750213e-01  -3.9296600344118127e-01  -3.9387733386689738e-01  -3.8591169572362005e-01  -4.6775941075722050e-01  -4.0194168273753400e-01  -2.9892264979422889e-01  -6.3511428182433638e-01  -5.1557473609987425e-01  -1.7945671117058917e-01  -1.8868558811862424e-01  -5.0436984446107891e-01  -2.9449307730414404e-01  -6.4652933926922684e-01  -6.4656642841496925e-01  -2.6178569844195465e-01  -2.1644961399881715e-01  -2.0185492287309093e-01  -5.0261512533229558e-01  -5.1687949684261314e-01  -3.1381606075157592e-01  -1.7316613436408557e-01  -5.9557679599493396e-01  -3.1247649138957401e-01  -4.2490414685163247e-01  -2.6231899851729551e-01  -5.9894226866452394e-01  -5.5177460707566617e-01  -7.2699098646191129e-01  -5.5263899461269816e-01  -5.9810592339461921e-01  -1.6430628199612465e-01  -1.6704145975116783e-01  -7.7011878933097455e-01  -1.6714380733010792e-01  -1.8231263662505279e-01  -5.5715264979030210e-01  -4.6349092108147111e-01  -4.5582582121890169e-01  -9.9485312207964804e-02  -6.0942640816904314e-01  -2.7311891690005680e-01  -5.4128762820580412e-01  -2.0516500301661297e-01  -2.4102287012780856e-02  -2.4143908530645890e-02  -3.7406842144532576e-01  -1.9602691741500641e-01  -6.1946016669758597e-01  -2.8927393527804263e-01  -2.9136573785316028e-01  -5.0066753194509017e-01  -2.2161625927394960e-01  -2.5665522514747835e-01  -2.8085100687488179e-01  -7.4330853475895831e-01  -7.5399734109580463e-01  -5.2579950441638867e-01  -6.2498582275223347e-01  -4.1651762708807083e-01  -6.1017295169549468e-01  -5.4055032989239415e-01  -1.6662001466697521e-01  -4.8111513579354781e-02  -6.3999244607447547e-02  -4.8769124343148444e-02  -7.1753228470919986e-02  -5.4589575494282713e-02  -2.3540470696861049e-02  -2.5755093351834280e-02  -3.8052650721844877e-01  -3.5087674003082220e-01  -4.3502683645728402e-01  -7.2284706134465929e-02  -5.0265281854169375e-01  -1.3161216882660365e-01  -4.0464003823723332e-01  -8.3653033532025203e-02  -3.1156614031716939e-01  -7.4236362239386766e-01  -7.5882919391531911e-01  -7.5973997516781733e-01  -2.6266463305962717e-01  -6.4762646930851930e-01  -5.0298592364131967e-01  -7.1401738954073937e-02  -5.0309684597056448e-01  -7.9097589361418719e-01  -7.9109355510082024e-01  -3.1183764520376239e-01  -5.5203788584738023e-01  -5.9883235908994270e-01  -5.9917142435831661e-01  -5.5082443851348206e-01  -5.5153791357802606e-01  -6.0000854194115116e-01  -7.1964155911341254e-02  -4.5644819534645592e-01  -3.6341125373027161e-01  -4.5655998729168984e-01  -6.4745587927479731e-01  -6.9452000757313592e-01  -1.1948061416775536e-01  -1.1935689146576650e-01  -1.1969191229020311e-01  -3.6040656083187911e-01  -6.9481978579540160e-01  -6.9466547002138013e-01  -7.4344043445744090e-01  -6.9462397581447233e-01  -2.1524242235409774e-01  -2.6313420988966846e-01  -5.0316891220117799e-01  -4.5588964253634390e-01  -2.3307698569829047e-02  -6.4738395956100647e-01  -2.1569358788715010e-01  -2.1555406403504412e-01  -7.4235548541856189e-01  -3.5786217579740431e-01  -4.3191718204534846e-01  -3.4783243731679520e-01  -3.1206773798776116e-01  -3.9216193181364795e-01  -4.9347333872468285e-02  -2.3641272261584360e-02  -3.2311670745977666e-01  -6.5894943576434983e-01  -7.5070336103570023e-01  -9.4197851261450111e-02  -9.8495031229747121e-02  -1.3221917647915798e-01  -3.7783970921520160e-01  -7.1700587273986960e-01  -7.1995893441519332e-01  -4.3584592519849402e-01  -6.2302338247113197e-02  -5.6528025712514390e-02  -2.7306549579668876e-01  -6.4789211489157683e-01  -6.5127232673387603e-01  -8.7590015549934050e-02  -1.8027219473824307e-01  -4.1923819411822150e-01  -4.1255591575311168e-01  -3.9959043622082391e-01  -4.0757170717874547e-01  -1.5836763705096302e-01  -7.3066419895906531e-01  -7.5188374146909798e-01  -7.5143782818677718e-01  -7.1724175580593574e-01  -6.8290746091621413e-01  -1.0749820640826442e-01  -1.0762570692448155e-01  -3.4812025887264164e-01  -3.7505544003800656e-01  -7.9291925957636811e-01  -4.6530237705858341e-01  -4.3301430266368279e-01  -3.4540679044726286e-01  -4.3630690684794576e-01  -4.6856677907495736e-01  -6.8084920992343245e-01  -6.8083702633386933e-01  -3.7412254997134498e-01  -4.7492502106070927e-01  -1.2670007147356940e-01  -7.1470065183895881e-01  -6.9088766773478338e-01  -7.2300579984018698e-01  -6.8283658232328548e-01  -7.1119715154779861e-01  -6.9076330173304246e-01  -4.3825346263197340e-01  -4.6652443997207099e-01  -3.4809637793511145e-01  -3.4173893920302872e-01  -6.7487440758571293e-01  -1.2350674868464463e-01  -1.3749651099990665e-01  -1.2648426330214657e-01  -1.3762243221693796e-01  -1.3996416953381047e-01  -9.9707842976599653e-02  -7.9293790429741295e-01  -7.0677048786730412e-01  -6.8288981463307197e-01  -5.6560236370061995e-02  -7.9423596369492799e-01  -3.5098044976649906e-01  -3.7467055181098369e-01  -3.9340563444169585e-01  -1.6912104433483205e-01  -3.8704502226089499e-01  -6.5893320283943380e-01  -4.9141267066894329e-01  -7.6432097714434089e-01  -7.2892330013260287e-01  -1.3929360316298112e-01  0.0000000000000000e+00  -9.9025504078500859e-02  -7.5450962456503046e-01  -1.4749221784070590e-01  -5.2130082340538597e-01  -4.9147557116254870e-01  -1.5880259684548514e-01  -6.6161654663680125e-01  -8.1434113069465086e-01  -2.0310711265764614e-01  -2.8444252640328344e-01  -3.9399570715007493e-01  -4.3403962116531491e-01  -3.2446551945241559e-01  -6.2057202541380352e-01  -5.3018715350467027e-01  -7.9281119970743164e-01  -7.9574119472494276e-01  -7.9446074812268430e-01  -1.6249800852496166e-01  -1.8118077097671742e-02  -7.5581462732624538e-01  -7.9415910632618292e-01  -6.5399578629302568e-01  -1.9016354463524128e-02  -5.4289715371073610e-01  -5.6339414419711520e-01  -5.8726960499175418e-01  -5.7805288734280880e-01  -5.7431479229953564e-01  -2.4079369950670834e-01  -2.4727207517348349e-01  -2.3742353782610390e-01  -2.3097671822802346e-01  -2.0512122993326073e-01  -2.7310575158522749e-01  -6.0942346868422625e-01  -5.4220731925573484e-01  -8.7259415740427101e-02  -9.9108044079909155e-02  -7.6271208118272327e-01  -1.9482619278113664e-01  -2.2089719971979371e-01  -2.4223118718003436e-01  -5.5640460598157282e-01  -5.9425857515333769e-01  -2.5108740697560750e-01  -4.9157978225539556e-01  -5.7787899766124118e-01  -6.1106567102154352e-01  -5.3949665404158520e-01  -4.2364225662389582e-01  -5.7785074165595585e-01  -2.4040837298133375e-01  -2.3785782011662351e-01  -5.7215415206729958e-01  -3.2336673139790145e-01  -8.1434113069465086e-01  -5.9487486338225891e-02  0.0000000000000000e+00  -1.7167735456597142e-02  -1.9400158026859991e-02  0.0000000000000000e+00  -1.4628601628000526e-01  -1.7753795538100164e-01  -7.7395425714916899e-01  -5.3454096341708168e-01  -6.1636896254895235e-01  -2.7327258482747691e-01  -7.7374485441871410e-01  -7.3906244680001365e-01  -2.7084938460746155e-01  -5.0411731878767685e-01  -1.6819706690374733e-01  -3.9757812395520981e-01  -6.7721831245063524e-01  -5.1032421636409253e-01  -2.0871085038858248e-01  -4.8218064303533720e-01  -6.7728534895929038e-01  -4.4707872627986728e-01  -3.5714329892775759e-01  -3.3268508845275963e-01  -7.6211414705973257e-01  -3.9492069188107687e-01  -4.6551182505062538e-01  -4.5966919016485047e-01  -4.4745615666642480e-01  -3.7314416767930836e-01  -4.6502356927361704e-01  -3.2257333625473322e-01  -3.1172991717419618e-01  -4.1370535223557536e-01  -4.1260730046328936e-01  -3.8987455341786370e-01  -3.8301803747657492e-01  -3.7543842147633449e-01  -3.3101485422742116e-01  -4.8519777002055658e-01  -3.8161932335248105e-01  -3.7652420891599531e-01  -4.2799638896429215e-01  -4.2207718339777345e-01  -4.1489072758113815e-01  -3.8726310867694891e-01  -4.3226040277841482e-01  -4.2934916297974379e-01  -4.0532209834526084e-01  -4.0710197274329102e-01  -4.0553544478566861e-01  -3.8474758484560667e-01  -4.0589007100362712e-01  -3.9983671407101440e-01  -4.0414300059257346e-01  -4.0945202527037694e-01  -4.1469532418628946e-01  -4.6781322289214694e-01  -3.6848200975213569e-01  -4.8911992087024470e-01  -5.0363034852075816e-01  -3.6085762015051964e-01  -3.4818670235993432e-01  -3.1222108498936774e-01  -3.0863817787329734e-01  -4.5144696640005072e-01  -3.2710408873009844e-01  -3.2399650479857123e-01  -3.2185074855321483e-01  -4.7138106521191075e-01  -4.7417246995583540e-01  -3.6281917933800040e-01  -3.9815863717878119e-01  -4.0087063224547159e-01  -3.9987323462009927e-01  -4.0927884582439222e-01  -3.3495586001750799e-01  -3.6184407097483634e-01  -4.1248521843960995e-01  -4.1710472031506013e-01  -4.9308461007765103e-01  -3.6013626521639652e-01  -4.5356280656487152e-01  -4.4459190918722147e-01  -4.5280892837636133e-01  -3.7444437443004452e-01  -4.7620694956348020e-01  -4.9770492134264871e-01  -4.9050891457468448e-01  -4.9232840996151578e-01  -4.8643256968709814e-01  -5.0446751248627753e-01  -5.1006905639627020e-01  -4.2029496115303810e-01  -4.1841769602463280e-01  -4.9145670644292772e-01  -4.5102790944607352e-01  -3.5224171172538410e-01  -3.8916688394377569e-01  -4.0730771233334007e-01  -4.0460175189121916e-01  -4.2103590885510755e-01  -4.2462374382248924e-01  -4.1468087931681719e-01  -3.7233720694278249e-01  -3.6232446787561806e-01  -3.4894986530474181e-01  -4.6055080945671539e-01  -4.7399035938734102e-01  -4.1977373621346703e-01  -4.0703524722930723e-01  -4.4721985165507777e-01  -3.4383339958153747e-01  -3.3688603507673986e-01  -3.2394104503726362e-01  -3.4675075898549734e-01  -3.1935084553845811e-01  -3.0944864369108577e-01  -4.0360186756554711e-01  -4.2162539467109372e-01  -4.2657996887983068e-01  -3.7339688887980804e-01  -3.6459538000183722e-01  -3.8577846048813685e-01  -4.1315040396710750e-01  -4.0030715122977717e-01  -3.4521005647431491e-01  -4.3695005120248837e-01  -4.4534616514089143e-01  -3.9547524944270107e-01  -3.6672578529343358e-01  -4.3801865500613768e-01  -4.8476830197332499e-01  -5.0568366530260966e-01  -4.9225309714132265e-01  -4.7232405815326334e-01  -3.9371070557499699e-01  -3.7209390660399388e-01  -4.4321605050986712e-01  -4.6665040171113209e-01  -3.7716967634316090e-01  -4.7018480042085037e-01  -4.5778431851398904e-01  -3.1288569141632433e-01  -3.0152770026261594e-01  -3.2934264365123878e-01  -3.8428415714180392e-01  -3.3541034220124083e-01  -3.3636143017880804e-01  -3.4181250572908650e-01  -3.4776950897991082e-01  -3.7504574213839947e-01  -4.4524140583763044e-01  -4.0504168829495002e-01  -4.4424557239397799e-01  -4.6417444820827036e-01  -4.4765366386809957e-01  -3.3056556094325240e-01  -3.5199675368630290e-01  -3.4333567038501661e-01  -3.7459107768153438e-01  -3.9142586608873320e-01  -3.9768615976369881e-01  -4.7917277284721865e-01  -4.7984463747066752e-01  -4.0294244429659642e-01  -4.0747671844172700e-01  -4.4372021468840489e-01  -3.4068410384108211e-01  -4.0149775974805085e-01  -3.9550622517376877e-01  -4.9668838491921458e-01  -4.7202516387213028e-01  -4.7404439764657463e-01  -4.3581312200072558e-01  -4.3757552948315259e-01  -3.6132939037521056e-01  -3.4418514972404668e-01  -3.4232264358041037e-01  -3.9710015708095164e-01  -3.9263933336965856e-01  -3.9996110266545953e-01  -4.0629346219986939e-01  -4.0688248034490593e-01  -4.1695108985498586e-01  -4.2097598704637529e-01  -3.9262376193454002e-01  -3.9505236666527005e-01  -3.8742674519788006e-01  -3.8128883569318323e-01  -3.8127866985521142e-01  -3.7768079916957920e-01  -3.7210585156055315e-01  -3.8474491224107299e-01  -3.8856604978488657e-01  -4.3144027668886997e-01  -4.0949850245656771e-01  -4.1745106696595280e-01  -4.2002180187847404e-01  -4.1607475287586160e-01  -4.2023697363811791e-01  -3.9569647972861138e-01  -3.8081268536482898e-01  -4.2953270066384452e-01  -4.2642884263455377e-01  -3.9709766528410939e-01  -4.0257164144853474e-01  -4.0021494868930541e-01  -4.0636396959745852e-01  -4.1293186689542594e-01  -4.1182020195992558e-01  -4.0482602442215593e-01  -4.0379403951593362e-01  -4.0794392348777603e-01  -3.8952554233554298e-01  -4.1034804844139017e-01  -4.0233677874866514e-01  -4.0788588128414055e-01  -4.0941344884323044e-01  -4.1354404800967060e-01  -4.0704431299397259e-01  -4.0629794725400825e-01  -3.9875135936192913e-01  -4.0440817174003474e-01  -3.9970600607106072e-01  -3.9663917770335205e-01  -4.0356932191991984e-01  -4.0124048267339724e-01  -3.9736589334166544e-01  -4.0110399912787642e-01  -4.0109589998736606e-01  -4.1469456981873432e-01  -4.0958468508448082e-01  -4.1579597324738504e-01  -4.0920808681657977e-01  -4.1918269665512431e-01  -4.2288601810774934e-01  -4.2623816996208042e-01  -4.2013296793532362e-01  -4.1411952450042472e-01  -3.8176000091351747e-01  -3.9104059920239476e-01  -3.9335749385322072e-01  -4.0550127757160842e-01  -4.0586071377012939e-01  -4.0879624226149158e-01  -4.0625920286573075e-01  -4.0460123965777040e-01  -4.3091410540068892e-01  -4.1770842266470709e-01  -4.2905573739108560e-01  -4.2092742302712993e-01  -4.1334387957760332e-01  -4.0575459183109358e-01  -4.3093380458972141e-01  -4.2270230424048300e-01  -4.2547457010343570e-01  -3.8176545435750725e-01  -3.8987634069798938e-01  -3.9094334385394997e-01  -3.8375645074431225e-01  -4.0726587277298970e-01  -3.9606678243224519e-01  -3.9010526733443202e-01  -3.9398690303997158e-01  -3.8209649468918588e-01  -3.7620449680962409e-01  -4.0398012887711682e-01  -4.0188645182570215e-01  -4.0590752794320634e-01  -4.0388172617464230e-01  -4.1008102969203974e-01  -4.0662728324104941e-01  -3.9797231173457959e-01  -3.9903272022444541e-01  -4.3178171200968690e-01  -4.3166902040095184e-01  </DataArray> 
</PointData> 
</Piece>
</UnstructuredGrid>
</VTKFile>