<?xml version="1.0"?>
<VTKFile type="UnstructuredGrid"  version="0.1"  >
<UnstructuredGrid>
<Piece  NumberOfPoints="778" NumberOfCells="1401">
<Points>
<DataArray  type="Float64"  NumberOfComponents="3"  format="ascii">1 -1 0  6 -1 0  6 1 0  1 1 0  1 6 0  -1 6 0  -1 1 0  -6 1 0  -6 -1 0  -1 -1 0  -1 -6 0  1 -6 0  1 3.5 0  -1 3.5 0  -1 -3.5 0  1 -3.5 0  3.5 -1 0  3.5 1 0  -3.5 -1 0  -3.5 1 0  -1 -2.25 0  1 -2.25 0  2.25 -1 0  2.25 1 0  -1 2.25 0  1 2.25 0  -1 4.75 0  1 4.75 0  -4.75 -1 0  -4.75 1 0  -2.25 1 0  -2.25 -1 0  1 -4.75 0  -1 -4.75 0  4.75 1 0  4.75 -1 0  0 0 0  -2.875 0 0  -1.625 0 0  -4.125 0 0  -6 0 0  0 2.875 0  2.875 0 0  0 6 0  1.625 0 0  0 -2.875 0  0 -1.625 0  0 1.625 0  0 4.125 0  0 -6 0  0 -4.125 0  4.125 0 0  6 0 0  -0.109375 5.0625 0  -5.0625 -0.109375 0  -0.109375 -5.0625 0  5.0625 0.109375 0  0.8125 -0.1875 0  -0.1875 -0.8125 0  -0.8125 0.1875 0  -0.1875 0.8125 0  1 5.375 0  -5.375 1 0  1 -5.375 0  5.375 -1 0  0.53515625 0.46484375 0  -5.375 -1 0  -1 5.375 0  -1 -5.375 0  -0.5 -6 0  5.375 1 0  6 0.5 0  3.5 0.3046875 0  3.43125 -0.34765625 0  2.875 -1 0  4.125 1 0  0.3046875 3.5 0  -0.34765625 3.56875 0  -1 4.125 0  1 4.125 0  -0.3046875 2.25 0  0.34765625 2.18125 0  1 1.625 0  -1 -1.625 0  -0.3046875 -3.5 0  0.34765625 -3.56875 0  1 -4.125 0  0.3046875 -2.25 0  -0.34765625 -2.18125 0  -1 -4.125 0  -1 -2.875 0  1 -2.875 0  1 -1.625 0  1.625 -1 0  1.625 1 0  2.25 0.3046875 0  2.18125 -0.34765625 0  4.125 -1 0  2.875 1 0  1 2.875 0  -1 1.625 0  -1 2.875 0  -4.125 -1 0  -2.25 0.3046875 0  -2.31875 -0.34765625 0  -2.875 -1 0  -1.625 1 0  -4.125 1 0  -3.5 0.3046875 0  -3.56875 -0.34765625 0  -1.625 -1 0  -2.875 1 0  0.380626321794301 1.06853329530276 0  -1.110819327731092 -0.3739495798319328 0  0.3739495798319328 -1.110819327731092 0  1.151210293219304 0.3991939332620648 0  -0.5 -4.4375 0  0.5 -4.4375 0  5.481553398058253 -0.3712833737864077 0  0.5 4.4375 0  0.5 6 0  -0.522503783594538 -0.3265648647465863 0  -1.3125 0.5 0  -0.5 6 0  0.3265648647465863 -0.522503783594538 0  4.4375 0.5 0  4.4375 -0.5 0  0.5 -6 0  -6 -0.5 0  -5.481553398058253 0.3712833737864077 0  -4.55 -0.4296875 0  -4.4375 0.5 0  -0.5 4.4375 0  0.4792930825242718 5.026881067961165 0  0.4792930825242718 -5.026881067961165 0  -0.5 1.3125 0  1.3125 -0.5 0  -0.5 -1.3125 0  0.25 5.518539952962044 0  0.2125133872612723 -5.500076563152851 0  4.969341874373811 -0.5152550785163683 0  -4.969341874373811 0.5152550785163683 0  3.927189744345589 -0.4712876597840069 0  -5.554036458333333 -0.25 0  5.554036458333333 0.25 0  -0.4690710616438356 -5.462756849315069 0  -0.4690710616438356 5.462756849315069 0  -6 0.5 0  -1.59556436210848 -0.5 0  -3.058421751829955 -0.5 0  -0.5 2.731982421875 0  0.5 2.691578248170045 0  2.691578248170045 -0.5 0  1.641211254104555 0.5 0  0.5 -1.768017578125 0  0.5 -3.058421751829955 0  0.5 1.699267578125 0  3.018017578125 0.5 0  -0.5 -3.018017578125 0  -2.731982421875 0.5 0  6 -0.5 0  -4.050017120925308 -0.5006099332648871 0  -3.940668202764977 0.5371363767281105 0  3.940668202764977 0.5371363767281105 0  0.4517449476047904 3.958458083832335 0  -0.4517449476047904 -3.958458083832335 0  -1.809331797235023 0.5371363767281105 0  -0.4517449476047904 1.791541916167665 0  -0.0546875 4.59375 0  -5.006445312499999 -0.58984375 0  4.605643203883496 -0.04725424757281554 0  4.90625 0.5546875 0  -0.5546875 4.90625 0  0.04725424757281554 -4.605643203883496 0  -0.586116118210531 -4.995821561900013 0  -4.603710222472543 0.04846236095466061 0  -3.1875 0.65234375 0  0.6163907621110913 3.147502300973589 0  2.5625 0.65234375 0  0.6163907621110913 -2.602497699026411 0  -0.637456713551384 3.189259902731882 0  -0.637456713551384 -2.560740097268118 0  -0.34765625 0.34765625 0  -0.639453125 0.708203125 0  0.089630126953125 0.437286376953125 0  -0.4238281249999999 -1.746875 0  1.746875 -0.4238281249999999 0  -0.4238281249999999 4.003125 0  0.4238281249999999 -4.003125 0  -2.5625 -1 0  3.1875 -1 0  -0.09375 -1.21875 0  1.21875 -0.09375 0  0.4020305405760241 -0.1120343241705621 0  -0.6280191027904287 -0.7577505545748082 0  0.90625 -0.59375 0  -1.205500904741459 0.03633725387965409 0  -0.02129048848213058 1.202028574265107 0  -0.1120343241705621 -0.4020305405760241 0  1 1.3125 0  -2.003587563743074 -0.6442361556699288 0  0.6640077663259718 -1.395873598614549 0  5.6875 -1 0  0.6308138580859101 -5.592151086468728 0  -5.6875 -1 0  0.6568032075915271 5.612942566073222 0  5.616530031741774 0.6612875396772174 0  -5.6875 1 0  1.9375 1 0  -1.3125 -1 0  0.1524679547155687 -3.232579139388032 0  0.1524679547155687 2.517420860611968 0  -3.232579139388032 -0.1524679547155687 0  -1.932320553757026 -0.252759244693845 0  2.517420860611968 -0.1524679547155687 0  -0.04776045819569434 -2.464949198504599 0  -0.2420369079104247 3.187693796852321 0  3.751304711039982 -0.1203080877045035 0  -5.397601941771943 -0.609026059866711 0  1.3125 1 0  1.9375 -1 0  -0.6946315101963667 -2.018229242739021 0  -0.6946315101963667 3.731770757260979 0  1 -3.8125 0  2.014364435550335 0.6166648446293641 0  -1 5.6875 0  -1 -5.6875 0  -2.653476149871182 -0.5942957192996303 0  3.096523850128818 -0.5942957192996303 0  1 1.9375 0  -3.8125 -1 0  0.586975531244212 -0.7975955463807081 0  -0.2946248980953088 -4.743710873809568 0  2.625453376770019 0.2814788818359375 0  -3.124546623229981 0.2814788818359375 0  -0.1204856417894853 5.631800603217465 0  5.253862011026742 0.6581468962876398 0  -0.65234375 2.108701557941197 0  0.65234375 3.641298442058803 0  -0.65234375 -3.641298442058803 0  -0.25 -5.744880569758637 0  -4.4375 -1 0  -0.3166212631734941 -2.713595940002554 0  0.6591479224207506 0.1324305912687024 0  0.8660781906552419 0.6468634238104103 0  -0.9887189158197679 0.6452930723873549 0  0.3149351927204296 -1.460971774996065 0  -0.3572852727880474 -0.009629022788047503 0  2.09375 -0.6866724363772454 0  0.6866724363772454 -3.65625 0  0.6866724363772454 2.09375 0  -3.65625 -0.6866724363772454 0  -3.5371337890625 0.65234375 0  -0.1389584113023952 1.944025352615082 0  -2.151744288472698 0.65234375 0  -0.1389584113023951 -3.805974647384918 0  0.1389584113023951 3.805974647384918 0  -2.578772109813904 0.1857224367977529 0  3.171227890186096 0.1857224367977529 0  3.360315647536819 0.65234375 0  0.1857224367977528 -1.921227890186096 0  0.65234375 -2.110315647536819 0  1.894016528727564 0.2415406141485869 0  -3.738232421875 0 0  0.2516875549238616 3.139069895099618 0  -1.913724396854074 0.2011142179916434 0  0.1669456568161915 0.7843410671359501 0  -2.5625 1 0  -1 -3.1875 0  -1 2.5625 0  0.1736601499778735 4.857955663330752 0  -0.1893536587212888 2.577300639071919 0  -0.1893536587212888 -3.172699360928081 0  3.852271904453858 0.206603749322895 0  -3.8125 1 0  -0.1250095034621793 -5.421707592768541 0  3.8125 -1 0  3.617304217264373 -0.6578427703661498 0  0.2630176195580202 -2.636558318495885 0  0.2674330357770522 1.399517071108871 0  0.631726413079416 1.339254523727593 0  4.700571879807737 0.2813704945051134 0  0.7143844363649634 -3.319538455208831 0  2.430461544791169 -0.7143844363649634 0  0.7143844363649634 2.430461544791169 0  -3.319538455208831 -0.7143844363649634 0  5.687045771608623 -0.6520598572553891 0  -5.687045771608623 0.6520598572553891 0  -1.15625 -0.7048248829733235 0  3.438284572973296 -0.01860298867862281 0  -0.03021088078697859 3.451572359862192 0  2.216682837011589 -0.02159585961918548 0  -2.191580885932936 -0.03126387444658879 0  0.1857410764408683 1.895679405349457 0  3.103473238297955 -0.253270943723272 0  -2.646526761702045 -0.253270943723272 0  -2.333137350671861 -0.6791984914172315 0  -1 5.0625 0  -0.6971235589909319 5.213002544375844 0  0.01618705363819947 2.225929180591695 0  0.01618705363819947 -3.524070819408305 0  0.5690054882403073 0.7951310720450595 0  -0.5764940424412852 -3.329579265180942 0  -0.5764940424412852 2.420420734819058 0  3.8125 1 0  -5.372163860234628 0.04365139563106807 0  5.164108319316826 -0.225040894204947 0  -5.361952437854323 0.6744012088984681 0  -5.0625 1 0  5.286835586913878 -0.6616705837083201 0  -5.692815197359722 0.1186699900166531 0  5.663425996156958 -0.07763197815533956 0  -0.9219866027132193 -0.1143045829323572 0  -1.394333629759332 -0.2233077430199216 0  0.09322478991596644 -0.9616596638655462 0  5.0625 -1 0  -0.14412109375 -1.92169189453125 0  -4.28125 -0.7212148987671345 0  0.2649796277366407 0.1735162902120744 0  -4.907855692236596 0.1868230509619793 0  -1.9375 1 0  1 5.0625 0  0.6915124486819284 -5.272938212550202 0  0.683483242673902 5.284948082526911 0  2.5625 -1 0  -1 -3.8125 0  -1 1.9375 0  5.0625 1 0  -1 -1.9375 0  1 5.6875 0  1 -5.6875 0  -1.9375 -1 0  -1 -2.5625 0  -1 3.1875 0  1 -3.1875 0  1 -2.5625 0  1 2.5625 0  1 3.1875 0  -5.0625 -1 0  -1 -1.3125 0  1.3125 -1 0  -1 1.3125 0  -1 3.8125 0  -1 4.4375 0  -4.4375 1 0  4.4375 -1 0  4.4375 1 0  -1.3125 1 0  1 4.4375 0  1 -4.4375 0  -1 -5.0625 0  -1 -4.4375 0  -3.1875 1 0  2.5625 1 0  1 -1.9375 0  1 -1.3125 0  5.6875 1 0  1 3.8125 0  3.1875 1 0  -3.1875 -1 0  1 -5.0625 0  1.35138038998199 0.6675097549271188 0  -0.465625 0.986328125 0  1.435958105992309 0.2563920171199723 0  1.915914614192913 -0.145782394639918 0  -0.8764440609469509 -0.5746869313612541 0  5.355194559946098 0.01566259380337612 0  -5.69333042954964 -0.5242868300459975 0  1.78125 -0.7320750794491524 0  0.7320750794491525 -3.96875 0  -0.3959075548864684 5.166422468926435 0  -4.770522389068053 -0.2123670725088856 0  -4.714160156249999 -0.69234375 0  -4.273484403713342 -0.278160994327167 0  0.9642590244517505 0.08196089404241463 0  0.3500261717645397 -4.727285205957206 0  0.6740868006020392 -4.765147848348443 0  0.6797550207247084 -1.089747806381148 0  -5.186479934354063 0.3046329157552757 0  -5.263288238215326 -0.3369092276308425 0  -2.433484016245305 0.5442571297016638 0  0.1707808983307866 -3.82363304980935 0  -0.1554012991031027 3.867535742674252 0  4.855508096805579 -0.2283975605264581 0  3.644517238097614 0.5646428152488787 0  0.05699603874439441 -0.6452791208413911 0  -0.3550018917972689 -0.5695324323732931 0  0.6
[...]
<PointData  Scalars="u"> 
<DataArray  type="Float64"  Name="u"  format="ascii">-4.7377497904041083e-01  0.0000000000000000e+00  0.0000000000000000e+00  -4.7107100362234094e-01  -9.4248907567836260e-01  -9.4248907567836260e-01  -4.7142525640305744e-01  0.0000000000000000e+00  0.0000000000000000e+00  -4.7136573050815306e-01  -9.4248907567836260e-01  -9.4248907567836260e-01  -7.1926937979587346e-01  -7.2017833524469477e-01  -7.1915552179047382e-01  -7.1968008737444955e-01  -2.2323594193357552e-01  -2.2358915815230909e-01  -2.2288752600994677e-01  -2.2349854559240243e-01  -6.0801326309133574e-01  -6.0913770310196735e-01  -3.3414720036329254e-01  -3.3429211525287761e-01  -6.0916011818270732e-01  -6.0863423741366529e-01  -8.3027536967424864e-01  -8.3101902865113630e-01  -1.1154837690347859e-01  -1.1144935827603919e-01  -3.3486584878685283e-01  -3.3453899739374560e-01  -8.3158782318360980e-01  -8.3100715166296957e-01  -1.1259924180213834e-01  -1.1147835396978722e-01  -4.7113240400330475e-01  -2.7850925707592861e-01  -3.8855983576176029e-01  -1.6719907697236880e-01  0.0000000000000000e+00  -6.6427979104888257e-01  -2.7848857550299438e-01  -9.4248907567836260e-01  -3.8827710446738506e-01  -6.6425891792777814e-01  -5.5438211654313452e-01  -5.5440829704083860e-01  -7.7553797067899433e-01  -9.4248907567836260e-01  -7.7545755684216777e-01  -1.6715459558644363e-01  0.0000000000000000e+00  -8.5897831221270216e-01  -8.3665683492969364e-02  -8.5901778474752011e-01  -8.3584168628197078e-02  -4.4903978238168002e-01  -4.9343006976911830e-01  -4.4922172884078893e-01  -4.9342737741562753e-01  -8.8672184075216298e-01  -5.5708364748711353e-02  -8.8640671130862569e-01  -5.5357984169552794e-02  -4.6861024400213308e-01  -5.6805865815226217e-02  -8.8716772375980757e-01  -8.8672314463468682e-01  -9.4248907567836260e-01  -5.5351712657766575e-02  0.0000000000000000e+00  -2.2297145430052423e-01  -2.2899743538127768e-01  -2.7850578569472711e-01  -1.6692079367494114e-01  -7.1993341806783973e-01  -7.2604399286562327e-01  -7.7547528591465664e-01  -7.7568070922374310e-01  -6.0872413985430307e-01  -6.0259949880263064e-01  -5.5176613069812064e-01  -5.5150634470852200e-01  -7.1982103762787031e-01  -7.2597535679445380e-01  -7.7547865502027113e-01  -6.0869492333112873e-01  -6.0253631990103651e-01  -7.7496654136804244e-01  -6.6472571532709812e-01  -6.6488088819777691e-01  -5.5172077972188049e-01  -3.9156145205347315e-01  -3.9118427938979888e-01  -3.3401669401981743e-01  -3.4009258187536673e-01  -1.6748057655353604e-01  -2.7851492211321044e-01  -6.6360245123224848e-01  -5.5149330974810962e-01  -6.6370423098089304e-01  -1.6742235796014615e-01  -3.3421271355128834e-01  -3.2808682430392661e-01  -2.7848753087823452e-01  -3.9178126816362741e-01  -1.6725001433298642e-01  -2.2290291951750082e-01  -2.1673813210146028e-01  -3.9150454513523120e-01  -2.7854689854237896e-01  -5.0735450660794035e-01  -4.3205349179313834e-01  -5.1080430347967087e-01  -4.2929982379869158e-01  -8.0329916391110634e-01  -8.0326115360794537e-01  -4.6292625047998345e-02  -8.0334548249252158e-01  -9.4248907567836260e-01  -4.6533425241385123e-01  -4.1763156390703837e-01  -9.4248907567836260e-01  -4.7711803705600170e-01  -1.3935567684722608e-01  -1.3928484111582509e-01  -9.4248907567836260e-01  0.0000000000000000e+00  -4.6295242809976288e-02  -1.2936778870621204e-01  -1.3934380913380354e-01  -8.0320808782347741e-01  -8.5574389672143003e-01  -8.5580840961286009e-01  -5.2547858351138566e-01  -4.1710778429507800e-01  -5.2518405771768151e-01  -8.9959878322403886e-01  -8.9796152415802877e-01  -9.2024120242528124e-02  -9.1907375508149813e-02  -1.8478860112530512e-01  -3.9838308030216742e-02  -3.9710971482785212e-02  -8.9460587618447363e-01  -8.9461182731095468e-01  0.0000000000000000e+00  -3.9269492901118830e-01  -2.6216171332440336e-01  -6.5158085016845446e-01  -6.4789307804853158e-01  -2.9480562640661778e-01  -3.8827359965309532e-01  -5.6561430282512193e-01  -6.8061503510301713e-01  -5.5955882219648956e-01  -2.6584540139744156e-01  -6.7690135015392050e-01  -2.9117719367775369e-01  0.0000000000000000e+00  -1.7388411879956719e-01  -1.8369678459711569e-01  -1.8366732227031360e-01  -7.6080150884354081e-01  -7.6057832973816186e-01  -3.7368774190333837e-01  -5.6785772143026580e-01  -8.1722128250002035e-01  -8.8735317061994404e-02  -1.2433924445524884e-01  -9.7524374697611119e-02  -8.4500883969131768e-01  -8.1828119309832381e-01  -8.5311183048083195e-01  -1.2454708507800262e-01  -2.5066455913935409e-01  -6.8857827888458623e-01  -3.0638690254619322e-01  -6.3994806694061590e-01  -6.9210048399419155e-01  -6.3634083688546594e-01  -4.7138097065260987e-01  -4.7495089303791288e-01  -4.7769045545617983e-01  -5.6391647488429253e-01  -3.7863687985042077e-01  -7.6471704180074529e-01  -7.6464958778585057e-01  -3.0584786162259625e-01  -2.5088553932861463e-01  -5.2139791875046904e-01  -4.2113384838713253e-01  -4.6578706570111150e-01  -4.7767369978429974e-01  -4.5288079868773690e-01  -4.2218474121875083e-01  -5.2026531662760411e-01  -4.7650489443678995e-01  -5.2182163869423392e-01  -3.5648306562640802e-01  -5.3103455634215879e-01  -2.7992883894830345e-02  -9.0620207928331009e-01  -2.7266531741790646e-02  -9.0806226280785440e-01  -3.4061418893980469e-02  -2.8718408851425823e-02  -3.6236795955996037e-01  -4.2103104007738962e-01  -6.9606842210011988e-01  -6.3249360175702907e-01  -2.4667846625307674e-01  -3.6226310055541949e-01  -3.1023481122874519e-01  -6.2782454146505651e-01  -6.9210147728900473e-01  -2.0046988582331332e-01  -5.3852589996186542e-02  -4.2124287280411538e-01  -3.6268973372703234e-01  -5.8749521541515515e-01  -7.4069474795762213e-01  -7.4795545696266430e-01  -3.5527632754494937e-01  -9.1416411965787492e-01  -9.1410200083263660e-01  -2.9830676854740845e-01  -2.5876479357328880e-01  -5.7986182662987451e-01  -1.9469571446506634e-01  -4.8207121409873621e-01  -8.3060711084279004e-01  -3.0069692133612441e-01  -2.5630713726489734e-01  -9.0966941436833637e-01  -6.6486275576180226e-02  -5.9599154007539601e-01  -7.3255979070346100e-01  -7.3234642576810904e-01  -9.1971940858188517e-01  -1.3908784626658247e-01  -6.4992236192274355e-01  -4.5644648956610195e-01  -4.5751767279546407e-01  -4.4820055958084548e-01  -5.3969060125540302e-01  -4.6674346223967628e-01  -3.4813995014504584e-01  -7.3377116952843557e-01  -5.9456343791252841e-01  -2.0894210827010690e-01  -2.1969302422773190e-01  -5.8186524488015645e-01  -3.4309845287689900e-01  -7.4705337788646853e-01  -7.4717471424957405e-01  -3.0486758085636567e-01  -2.5217874193926065e-01  -2.3530599720678250e-01  -5.7977393454556825e-01  -5.9606265042545625e-01  -3.6536228627797618e-01  -2.0165367686081517e-01  -6.8780415418149510e-01  -3.6381951915149474e-01  -4.9203936349239913e-01  -3.0522837038956252e-01  -6.9177020730551564e-01  -6.3667754348940142e-01  -8.4074820359326963e-01  -6.3781978241603698e-01  -6.9071188621896507e-01  -1.9146218764847284e-01  -1.9443994111216556e-01  -8.9099512727049213e-01  -1.9470332359525711e-01  -2.1239324232629206e-01  -6.4304024783347846e-01  -5.3490051133600736e-01  -5.2578158134153274e-01  -1.1589150134072303e-01  -7.0382714056691742e-01  -3.1805969707455439e-01  -6.2460202108612362e-01  -2.3893157594508921e-01  -2.8044777791844194e-02  -2.8119440186914250e-02  -4.3497900935258643e-01  -2.2838542647267426e-01  -7.1561310388551280e-01  -3.3684754748056589e-01  -3.3926136292720821e-01  -5.7756168186279233e-01  -2.5815677659665143e-01  -2.9887278570356651e-01  -3.2704880894444022e-01  -8.5977126940006476e-01  -8.7233490189965435e-01  -6.0667757445287307e-01  -7.2198574149424333e-01  -4.8250561741163045e-01  -7.0467230417660220e-01  -6.2376246952873682e-01  -1.9403172030615462e-01  -5.6037883289337634e-02  -7.4575977465954971e-02  -5.6863140593763330e-02  -8.3683771065579962e-02  -6.3634496058657189e-02  -2.7442874681819929e-02  -3.0017251186156561e-02  -4.4223659840408014e-01  -4.0816284146550935e-01  -5.0323467495541263e-01  -8.4363804814887727e-02  -5.7982162667932502e-01  -1.5327596400643259e-01  -4.6978229006648531e-01  -9.7422775876176787e-02  -3.6352401979294269e-01  -8.5848150287835023e-01  -8.7775838622075997e-01  -8.7884317944834023e-01  -3.0583535584991556e-01  -7.4808837745963341e-01  -5.7975104000345712e-01  -8.3116071227400057e-02  -5.7948688056380915e-01  -9.1552204228803646e-01  -9.1563077814600524e-01  -3.6355597502310377e-01  -6.3694881442145457e-01  -6.9145746140931241e-01  -6.9183263586904509e-01  -6.3548637572168243e-01  -6.3661698343160233e-01  -6.9302263469387182e-01  -8.3715181638096201e-02  -5.2241823832072198e-01  -4.2336335447364037e-01  -5.2225416325861218e-01  -7.4820089032107528e-01  -8.0283983813190218e-01  -1.3928262254724985e-01  -1.3895250727114242e-01  -1.3954692587705228e-01  -4.2087333911599967e-01  -8.0333497850886604e-01  -8.0298585992466320e-01  -8.6011182422671417e-01  -8.0306564613964382e-01  -2.5076701324616885e-01  -3.0667668985064545e-01  -5.7976005057219715e-01  -5.2225066263324638e-01  -2.6861644521870350e-02  -7.4822619008846081e-01  -2.5153696254355690e-01  -2.5112186890287957e-01  -8.5858821036798039e-01  -4.1630327925013194e-01  -4.9939765688966081e-01  -4.0469597023041742e-01  -3.6331008856966235e-01  -4.5510673018184322e-01  -5.7478945923216063e-02  -2.7470047105084851e-02  -3.7637272794476073e-01  -7.6155122517998641e-01  -8.6834007667372337e-01  -1.0970715746482060e-01  -1.1473031637969243e-01  -1.5397885977488099e-01  -4.3913591390070095e-01  -8.2911480602907672e-01  -8.3254869753947525e-01  -5.0244789315775129e-01  -7.2547659212572349e-02  -6.5798503036235828e-02  -3.1797728124019514e-01  -7.4864823470008413e-01  -7.5264369661216335e-01  -1.0208415095305579e-01  -2.1004164995987706e-01  -4.8586243464537604e-01  -4.7837362713359799e-01  -4.6381910670619109e-01  -4.7306136916003977e-01  -1.8441864661451340e-01  -8.4496804989406771e-01  -8.6972448704389382e-01  -8.6920978922276959e-01  -8.2939856722434691e-01  -7.8947638525684560e-01  -1.2538469755568574e-01  -1.2537225739477961e-01  -4.0541218750991281e-01  -4.3587673000006727e-01  -9.1746727446844500e-01  -5.3702835338444355e-01  -4.9933767315597977e-01  -4.0188920087511110e-01  -5.0437142101668253e-01  -5.4064914829386979e-01  -7.8700211023805278e-01  -7.8702899293446615e-01  -4.3489205350252524e-01  -5.4694702268834294e-01  -1.4753783064875398e-01  -8.2640296872242447e-01  -7.9867641568409720e-01  -8.3612399584676711e-01  -7.8931354831059708e-01  -8.2229279478896855e-01  -7.9859812566812849e-01  -5.0429703716862229e-01  -5.3721653060533281e-01  -4.0499556200720632e-01  -3.9819277982278584e-01  -7.7994697875238561e-01  -1.4391383614425080e-01  -1.6014893424866561e-01  -1.4736187188112676e-01  -1.6021611747786740e-01  -1.6307168498242638e-01  -1.1611562606145648e-01  -9.1749730047107125e-01  -8.1721064661050080e-01  -7.8934460886762381e-01  -6.5873668744469621e-02  -9.1904252766012562e-01  -4.0855301319093024e-01  -4.3586284412784437e-01  -4.5699109805628246e-01  -1.9696863455823244e-01  -4.4957770369261468e-01  -7.6166199122222333e-01  -5.6634919781773796e-01  -8.8424058598110367e-01  -8.4299236700950531e-01  -1.6231321608906446e-01  0.0000000000000000e+00  -1.1533982951631290e-01  -8.7293276176095735e-01  -1.7176706357314972e-01  -6.0141190974430336e-01  -5.6631603654913387e-01  -1.8492641956670611e-01  -7.6473309214161100e-01  -9.4248907567836260e-01  -2.3668829766794350e-01  -3.3133088507189862e-01  -4.5733126352361086e-01  -5.0045431191105960e-01  -3.7794414147704519e-01  -7.1690290033062853e-01  -6.1148033822145764e-01  -9.1740559543839684e-01  -9.2082789531407849e-01  -9.1931157915589390e-01  -1.8936711044604121e-01  -2.1136266556187409e-02  -8.7429621299609583e-01  -9.1897738746049518e-01  -7.5574412912914146e-01  -2.2182972907363683e-02  -6.2646955171687158e-01  -6.5028497651445938e-01  -6.7817450692362491e-01  -6.6735309706757395e-01  -6.6305259812781503e-01  -2.8045777830974938e-01  -2.8800015297275139e-01  -2.7649635828102981e-01  -2.6897124623716784e-01  -2.3884872141477570e-01  -3.1807025893331159e-01  -7.0388617518403751e-01  -6.2567357630021003e-01  -1.0178779099942893e-01  -1.1549614036115370e-01  -8.8235220402649805e-01  -2.2687026898156515e-01  -2.5745068541503180e-01  -2.8220270106491291e-01  -6.4222027236627222e-01  -6.8621179140882249e-01  -2.9242008132887026e-01  -5.6636792377588840e-01  -6.6721237451188176e-01  -7.0591806707154270e-01  -6.2250742594385988e-01  -4.9051092535485075e-01  -6.6707790412891255e-01  -2.7994818356336265e-01  -2.7706778593806147e-01  -6.6058062197025624e-01  -3.7679254500155646e-01  -9.4248907567836260e-01  -6.9470973287317273e-02  0.0000000000000000e+00  -2.0012572857312661e-02  -2.2567315561024197e-02  0.0000000000000000e+00  -1.7044121647935942e-01  -2.0688092892298593e-01  -8.9540389788418562e-01  -6.1668790157779874e-01  -7.1198244316461634e-01  -3.1825754545174673e-01  -8.9520139815352451e-01  -8.5483312567138925e-01  -3.1539409093690385e-01  -5.8140811760012734e-01  -1.9586208591511134e-01  -4.6172329541989343e-01  -7.8275283399356888e-01  -5.8856060711657154e-01  -2.4312723858540827e-01  -5.5624127359171038e-01  -7.8293804682972412e-01  -5.1641159568919082e-01  -4.1551633883018496e-01  -3.8721249502765731e-01  -8.8165011456897802e-01  -4.5870031284296525e-01  -5.3738543988857679e-01  -5.3074933512669342e-01  -5.1704127178661730e-01  -4.3361639412497910e-01  -5.3683209532354381e-01  -3.7548227957957198e-01  -3.6290545646377081e-01  -4.7947638878618909e-01  -4.7670558826957249e-01  -4.5295050557849637e-01  -4.4510083065883954e-01  -4.3646333063417259e-01  -3.8527132597654451e-01  -5.5966673416521662e-01  -4.4302710746820584e-01  -4.3767257053207764e-01  -4.9522554758935289e-01  -4.8870673242469564e-01  -4.8089833415731531e-01  -4.4995572307444692e-01  -4.9988409803569911e-01  -4.9661955177972689e-01  -4.7013707419812650e-01  -4.7242029540501601e-01  -4.7077401979548095e-01  -4.4690620180774782e-01  -4.7121071517673535e-01  -4.6431598297058807e-01  -4.6908250042765154e-01  -4.7498638783288000e-01  -4.8077948544790799e-01  -5.3841420909550652e-01  -4.2964738750082204e-01  -5.6347331389217614e-01  -5.8067521300336300e-01  -4.2028569614693739e-01  -4.0509508741654071e-01  -3.6357148285764312e-01  -3.5937557526535657e-01  -5.2025279609703656e-01  -3.8100484222098446e-01  -3.7725840732111232e-01  -3.7476788249301207e-01  -5.4316182690668979e-01  -5.4625581859858996e-01  -4.2202997511461432e-01  -4.6242342194554797e-01  -4.6545498527076073e-01  -4.6361346114213203e-01  -4.7387616204292282e-01  -3.8984728274263319e-01  -4.2080088244828689e-01  -4.7845117620147554e-01  -4.8347926867135049e-01  -5.6871226907043382e-01  -4.1881306518667039e-01  -5.2363470761324671e-01  -5.1284919580198707e-01  -5.2161100812140515e-01  -4.3624374954447509e-01  -5.4874475853836413e-01  -5.7381982957652544e-01  -5.6588980138426337e-01  -5.6800385812836474e-01  -5.6120111442160259e-01  -5.8173552438823084e-01  -5.8835367834545849e-01  -4.8610966243896431e-01  -4.8498362544556106e-01  -5.6696381242216742e-01  -5.2024051819391781e-01  -4.0990488570498701e-01  -4.5210989039338056e-01  -4.7279993907923534e-01  -4.6977951914123561e-01  -4.8752162041760211e-01  -4.9147273211732151e-01  -4.7911467141163838e-01  -4.3276083574414320e-01  -4.2162746233878801e-01  -4.0590997648624189e-01  -5.3154137565347792e-01  -5.4667467213495791e-01  -4.8616758089126622e-01  -4.7249323544165911e-01  -5.1610301975474904e-01  -4.0031427245024997e-01  -3.9237206095898391e-01  -3.7703760067881814e-01  -4.0395594624197539e-01  -3.7194616998636515e-01  -3.6035680335842479e-01  -4.6822539149306985e-01  -4.8842509128474876e-01  -4.9390423619073653e-01  -4.3400671668841728e-01  -4.2399210137496612e-01  -4.4824962396011891e-01  -4.7788096087823528e-01  -4.6432767991607610e-01  -4.0179754382199961e-01  -5.0540258789200421e-01  -5.1461429612822429e-01  -4.5936909238927781e-01  -4.2636828910651242e-01  -5.0651296679819213e-01  -5.5923170748487117e-01  -5.8320691964698335e-01  -5.6730893506711866e-01  -5.4461185576099946e-01  -4.5785377844554837e-01  -4.3731758119619640e-01  -5.1186012367283762e-01  -5.3712101675209434e-01  -4.3921499065150843e-01  -5.4121607595222088e-01  -5.2859610064878892e-01  -3.6423814415842964e-01  -3.5107942258764890e-01  -3.8332603600116816e-01  -4.4654685994457127e-01  -3.9065744071521841e-01  -3.9156409180458546e-01  -3.9782358484790670e-01  -4.0578738391081831e-01  -4.3597473588298619e-01  -5.1026777737353479e-01  -4.7014327861351235e-01  -5.0833919505645775e-01  -5.3415786462009240e-01  -5.1186512423748287e-01  -3.8474731489081737e-01  -4.0998939591243222e-01  -4.0003047224989829e-01  -4.3534234064610705e-01  -4.5465707745423861e-01  -4.6174658478584429e-01  -5.5201881291903820e-01  -5.5309909236987542e-01  -4.6786010832632063e-01  -4.7266122283582912e-01  -5.0830245404948182e-01  -3.9680100962397530e-01  -4.6600076723659029e-01  -4.5927670505924384e-01  -5.7284340779735621e-01  -5.4473025790796925e-01  -5.4681624726623601e-01  -5.0399085145571432e-01  -5.0610021265508087e-01  -4.2017293778606296e-01  -4.0055418466977105e-01  -3.9831277567552592e-01  -4.6119352550282189e-01  -4.5608251973092528e-01  -4.6439090298879415e-01  -4.7132356117064322e-01  -4.7174130661500574e-01  -4.8317285818695843e-01  -4.8729059089311455e-01  -4.5605379086721626e-01  -4.5889088066231309e-01  -4.5016810829925108e-01  -4.4310598064024020e-01  -4.4308399026451850e-01  -4.3896898401516243e-01  -4.3253934324792659e-01  -4.4706082884813497e-01  -4.5145489891075097e-01  -4.9914588489694756e-01  -4.7468751904355527e-01  -4.8387391126211754e-01  -4.8653897531572138e-01  -4.8198351226478015e-01  -4.8644638408888752e-01  -4.5935150352816406e-01  -4.4255525485372599e-01  -4.9709406576949827e-01  -4.9345792148007578e-01  -4.6095824252221890e-01  -4.6665154551523830e-01  -4.6391908168406182e-01  -4.7153685639743653e-01  -4.7857246773980983e-01  -4.7766840052129278e-01  -4.7003803618770906e-01  -4.6870548357204234e-01  -4.7344563031925258e-01  -4.5248971057278609e-01  -4.7611730488520643e-01  -4.6725479761300165e-01  -4.7334979422011936e-01  -4.7480598933989915e-01  -4.7949950982098266e-01  -4.7224994303121715e-01  -4.7155173852085547e-01  -4.6300138873186097e-01  -4.6942010276041463e-01  -4.6420950607623940e-01  -4.6063994353731763e-01  -4.6855860406633421e-01  -4.6589307747590530e-01  -4.6148105346777174e-01  -4.6542819339601504e-01  -4.6549921850951087e-01  -4.8087223243717403e-01  -4.7526653755346204e-01  -4.8202455157709545e-01  -4.7480441299869813e-01  -4.8567061091152142e-01  -4.8981447693849084e-01  -4.9360010023388667e-01  -4.8676500436352887e-01  -4.8022918517890373e-01  -4.4366153277902104e-01  -4.5429239515902997e-01  -4.5689412741248348e-01  -4.7081067534356397e-01  -4.7119776654185525e-01  -4.7443361885463492e-01  -4.7162936667169053e-01  -4.6974151427332073e-01  -4.9853545548751099e-01  -4.8362968574809695e-01  -4.9646160485026541e-01  -4.8703575372871455e-01  -4.7907580482851808e-01  -4.7109673038473970e-01  -4.9869662863910147e-01  -4.8962805512479923e-01  -4.9263483715274808e-01  -4.4363585622385948e-01  -4.5290856930749973e-01  -4.5412866493979009e-01  -4.4593636484071864e-01  -4.7181928443476340e-01  -4.5979499642756155e-01  -4.5282665755559337e-01  -4.5746067389801071e-01  -4.4397795541197560e-01  -4.3719623932314872e-01  -4.6883688097260290e-01  -4.6656643054980806e-01  -4.7120493013839720e-01  -4.6895505865459919e-01  -4.7567068107473781e-01  -4.7177013132077772e-01  -4.6199957694513288e-01  -4.6330612218533990e-01  -4.9971137719776704e-01  -4.9954756068015588e-01  </DataArray> 
</PointData> 
</Piece>
</UnstructuredGrid>
</VTKFile>