<?xml version="1.0"?>
<VTKFile type="UnstructuredGrid"  version="0.1"  >
<UnstructuredGrid>
<Piece  NumberOfPoints="778" NumberOfCells="1401">
<Points>
<DataArray  type="Float64"  NumberOfComponents="3"  format="ascii">1 -1 0  6 -1 0  6 1 0  1 1 0  1 6 0  -1 6 0  -1 1 0  -6 1 0  -6 -1 0  -1 -1 0  -1 -6 0  1 -6 0  1 3.5 0  -1 3.5 0  -1 -3.5 0  1 -3.5 0  3.5 -1 0  3.5 1 0  -3.5 -1 0  -3.5 1 0  -1 -2.25 0  1 -2.25 0  2.25 -1 0  2.25 1 0  -1 2.25 0  1 2.25 0  -1 4.75 0  1 4.75 0  -4.75 -1 0  -4.75 1 0  -2.25 1 0  -2.25 -1 0  1 -4.75 0  -1 -4.75 0  4.75 1 0  4.75 -1 0  0 0 0  -2.875 0 0  -1.625 0 0  -4.125 0 0  -6 0 0  0 2.875 0  2.875 0 0  0 6 0  1.625 0 0  0 -2.875 0  0 -1.625 0  0 1.625 0  0 4.125 0  0 -6 0  0 -4.125 0  4.125 0 0  6 0 0  -0.109375 5.0625 0  -5.0625 -0.109375 0  -0.109375 -5.0625 0  5.0625 0.109375 0  0.8125 -0.1875 0  -0.1875 -0.8125 0  -0.8125 0.1875 0  -0.1875 0.8125 0  1 5.375 0  -5.375 1 0  1 -5.375 0  5.375 -1 0  0.53515625 0.46484375 0  -5.375 -1 0  -1 5.375 0  -1 -5.375 0  -0.5 -6 0  5.375 1 0  6 0.5 0  3.5 0.3046875 0  3.43125 -0.34765625 0  2.875 -1 0  4.125 1 0  0.3046875 3.5 0  -0.34765625 3.56875 0  -1 4.125 0  1 4.125 0  -0.3046875 2.25 0  0.34765625 2.18125 0  1 1.625 0  -1 -1.625 0  -0.3046875 -3.5 0  0.34765625 -3.56875 0  1 -4.125 0  0.3046875 -2.25 0  -0.34765625 -2.18125 0  -1 -4.125 0  -1 -2.875 0  1 -2.875 0  1 -1.625 0  1.625 -1 0  1.625 1 0  2.25 0.3046875 0  2.18125 -0.34765625 0  4.125 -1 0  2.875 1 0  1 2.875 0  -1 1.625 0  -1 2.875 0  -4.125 -1 0  -2.25 0.3046875 0  -2.31875 -0.34765625 0  -2.875 -1 0  -1.625 1 0  -4.125 1 0  -3.5 0.3046875 0  -3.56875 -0.34765625 0  -1.625 -1 0  -2.875 1 0  0.380626321794301 1.06853329530276 0  -1.110819327731092 -0.3739495798319328 0  0.3739495798319328 -1.110819327731092 0  1.151210293219304 0.3991939332620648 0  -0.5 -4.4375 0  0.5 -4.4375 0  5.481553398058253 -0.3712833737864077 0  0.5 4.4375 0  0.5 6 0  -0.522503783594538 -0.3265648647465863 0  -1.3125 0.5 0  -0.5 6 0  0.3265648647465863 -0.522503783594538 0  4.4375 0.5 0  4.4375 -0.5 0  0.5 -6 0  -6 -0.5 0  -5.481553398058253 0.3712833737864077 0  -4.55 -0.4296875 0  -4.4375 0.5 0  -0.5 4.4375 0  0.4792930825242718 5.026881067961165 0  0.4792930825242718 -5.026881067961165 0  -0.5 1.3125 0  1.3125 -0.5 0  -0.5 -1.3125 0  0.25 5.518539952962044 0  0.2125133872612723 -5.500076563152851 0  4.969341874373811 -0.5152550785163683 0  -4.969341874373811 0.5152550785163683 0  3.927189744345589 -0.4712876597840069 0  -5.554036458333333 -0.25 0  5.554036458333333 0.25 0  -0.4690710616438356 -5.462756849315069 0  -0.4690710616438356 5.462756849315069 0  -6 0.5 0  -1.59556436210848 -0.5 0  -3.058421751829955 -0.5 0  -0.5 2.731982421875 0  0.5 2.691578248170045 0  2.691578248170045 -0.5 0  1.641211254104555 0.5 0  0.5 -1.768017578125 0  0.5 -3.058421751829955 0  0.5 1.699267578125 0  3.018017578125 0.5 0  -0.5 -3.018017578125 0  -2.731982421875 0.5 0  6 -0.5 0  -4.050017120925308 -0.5006099332648871 0  -3.940668202764977 0.5371363767281105 0  3.940668202764977 0.5371363767281105 0  0.4517449476047904 3.958458083832335 0  -0.4517449476047904 -3.958458083832335 0  -1.809331797235023 0.5371363767281105 0  -0.4517449476047904 1.791541916167665 0  -0.0546875 4.59375 0  -5.006445312499999 -0.58984375 0  4.605643203883496 -0.04725424757281554 0  4.90625 0.5546875 0  -0.5546875 4.90625 0  0.04725424757281554 -4.605643203883496 0  -0.586116118210531 -4.995821561900013 0  -4.603710222472543 0.04846236095466061 0  -3.1875 0.65234375 0  0.6163907621110913 3.147502300973589 0  2.5625 0.65234375 0  0.6163907621110913 -2.602497699026411 0  -0.637456713551384 3.189259902731882 0  -0.637456713551384 -2.560740097268118 0  -0.34765625 0.34765625 0  -0.639453125 0.708203125 0  0.089630126953125 0.437286376953125 0  -0.4238281249999999 -1.746875 0  1.746875 -0.4238281249999999 0  -0.4238281249999999 4.003125 0  0.4238281249999999 -4.003125 0  -2.5625 -1 0  3.1875 -1 0  -0.09375 -1.21875 0  1.21875 -0.09375 0  0.4020305405760241 -0.1120343241705621 0  -0.6280191027904287 -0.7577505545748082 0  0.90625 -0.59375 0  -1.205500904741459 0.03633725387965409 0  -0.02129048848213058 1.202028574265107 0  -0.1120343241705621 -0.4020305405760241 0  1 1.3125 0  -2.003587563743074 -0.6442361556699288 0  0.6640077663259718 -1.395873598614549 0  5.6875 -1 0  0.6308138580859101 -5.592151086468728 0  -5.6875 -1 0  0.6568032075915271 5.612942566073222 0  5.616530031741774 0.6612875396772174 0  -5.6875 1 0  1.9375 1 0  -1.3125 -1 0  0.1524679547155687 -3.232579139388032 0  0.1524679547155687 2.517420860611968 0  -3.232579139388032 -0.1524679547155687 0  -1.932320553757026 -0.252759244693845 0  2.517420860611968 -0.1524679547155687 0  -0.04776045819569434 -2.464949198504599 0  -0.2420369079104247 3.187693796852321 0  3.751304711039982 -0.1203080877045035 0  -5.397601941771943 -0.609026059866711 0  1.3125 1 0  1.9375 -1 0  -0.6946315101963667 -2.018229242739021 0  -0.6946315101963667 3.731770757260979 0  1 -3.8125 0  2.014364435550335 0.6166648446293641 0  -1 5.6875 0  -1 -5.6875 0  -2.653476149871182 -0.5942957192996303 0  3.096523850128818 -0.5942957192996303 0  1 1.9375 0  -3.8125 -1 0  0.586975531244212 -0.7975955463807081 0  -0.2946248980953088 -4.743710873809568 0  2.625453376770019 0.2814788818359375 0  -3.124546623229981 0.2814788818359375 0  -0.1204856417894853 5.631800603217465 0  5.253862011026742 0.6581468962876398 0  -0.65234375 2.108701557941197 0  0.65234375 3.641298442058803 0  -0.65234375 -3.641298442058803 0  -0.25 -5.744880569758637 0  -4.4375 -1 0  -0.3166212631734941 -2.713595940002554 0  0.6591479224207506 0.1324305912687024 0  0.8660781906552419 0.6468634238104103 0  -0.9887189158197679 0.6452930723873549 0  0.3149351927204296 -1.460971774996065 0  -0.3572852727880474 -0.009629022788047503 0  2.09375 -0.6866724363772454 0  0.6866724363772454 -3.65625 0  0.6866724363772454 2.09375 0  -3.65625 -0.6866724363772454 0  -3.5371337890625 0.65234375 0  -0.1389584113023952 1.944025352615082 0  -2.151744288472698 0.65234375 0  -0.1389584113023951 -3.805974647384918 0  0.1389584113023951 3.805974647384918 0  -2.578772109813904 0.1857224367977529 0  3.171227890186096 0.1857224367977529 0  3.360315647536819 0.65234375 0  0.1857224367977528 -1.921227890186096 0  0.65234375 -2.110315647536819 0  1.894016528727564 0.2415406141485869 0  -3.738232421875 0 0  0.2516875549238616 3.139069895099618 0  -1.913724396854074 0.2011142179916434 0  0.1669456568161915 0.7843410671359501 0  -2.5625 1 0  -1 -3.1875 0  -1 2.5625 0  0.1736601499778735 4.857955663330752 0  -0.1893536587212888 2.577300639071919 0  -0.1893536587212888 -3.172699360928081 0  3.852271904453858 0.206603749322895 0  -3.8125 1 0  -0.1250095034621793 -5.421707592768541 0  3.8125 -1 0  3.617304217264373 -0.6578427703661498 0  0.2630176195580202 -2.636558318495885 0  0.2674330357770522 1.399517071108871 0  0.631726413079416 1.339254523727593 0  4.700571879807737 0.2813704945051134 0  0.7143844363649634 -3.319538455208831 0  2.430461544791169 -0.7143844363649634 0  0.7143844363649634 2.430461544791169 0  -3.319538455208831 -0.7143844363649634 0  5.687045771608623 -0.6520598572553891 0  -5.687045771608623 0.6520598572553891 0  -1.15625 -0.7048248829733235 0  3.438284572973296 -0.01860298867862281 0  -0.03021088078697859 3.451572359862192 0  2.216682837011589 -0.02159585961918548 0  -2.191580885932936 -0.03126387444658879 0  0.1857410764408683 1.895679405349457 0  3.103473238297955 -0.253270943723272 0  -2.646526761702045 -0.253270943723272 0  -2.333137350671861 -0.6791984914172315 0  -1 5.0625 0  -0.6971235589909319 5.213002544375844 0  0.01618705363819947 2.225929180591695 0  0.01618705363819947 -3.524070819408305 0  0.5690054882403073 0.7951310720450595 0  -0.5764940424412852 -3.329579265180942 0  -0.5764940424412852 2.420420734819058 0  3.8125 1 0  -5.372163860234628 0.04365139563106807 0  5.164108319316826 -0.225040894204947 0  -5.361952437854323 0.6744012088984681 0  -5.0625 1 0  5.286835586913878 -0.6616705837083201 0  -5.692815197359722 0.1186699900166531 0  5.663425996156958 -0.07763197815533956 0  -0.9219866027132193 -0.1143045829323572 0  -1.394333629759332 -0.2233077430199216 0  0.09322478991596644 -0.9616596638655462 0  5.0625 -1 0  -0.14412109375 -1.92169189453125 0  -4.28125 -0.7212148987671345 0  0.2649796277366407 0.1735162902120744 0  -4.907855692236596 0.1868230509619793 0  -1.9375 1 0  1 5.0625 0  0.6915124486819284 -5.272938212550202 0  0.683483242673902 5.284948082526911 0  2.5625 -1 0  -1 -3.8125 0  -1 1.9375 0  5.0625 1 0  -1 -1.9375 0  1 5.6875 0  1 -5.6875 0  -1.9375 -1 0  -1 -2.5625 0  -1 3.1875 0  1 -3.1875 0  1 -2.5625 0  1 2.5625 0  1 3.1875 0  -5.0625 -1 0  -1 -1.3125 0  1.3125 -1 0  -1 1.3125 0  -1 3.8125 0  -1 4.4375 0  -4.4375 1 0  4.4375 -1 0  4.4375 1 0  -1.3125 1 0  1 4.4375 0  1 -4.4375 0  -1 -5.0625 0  -1 -4.4375 0  -3.1875 1 0  2.5625 1 0  1 -1.9375 0  1 -1.3125 0  5.6875 1 0  1 3.8125 0  3.1875 1 0  -3.1875 -1 0  1 -5.0625 0  1.35138038998199 0.6675097549271188 0  -0.465625 0.986328125 0  1.435958105992309 0.2563920171199723 0  1.915914614192913 -0.145782394639918 0  -0.8764440609469509 -0.5746869313612541 0  5.355194559946098 0.01566259380337612 0  -5.69333042954964 -0.5242868300459975 0  1.78125 -0.7320750794491524 0  0.7320750794491525 -3.96875 0  -0.3959075548864684 5.166422468926435 0  -4.770522389068053 -0.2123670725088856 0  -4.714160156249999 -0.69234375 0  -4.273484403713342 -0.278160994327167 0  0.9642590244517505 0.08196089404241463 0  0.3500261717645397 -4.727285205957206 0  0.6740868006020392 -4.765147848348443 0  0.6797550207247084 -1.089747806381148 0  -5.186479934354063 0.3046329157552757 0  -5.263288238215326 -0.3369092276308425 0  -2.433484016245305 0.5442571297016638 0  0.1707808983307866 -3.82363304980935 0  -0.1554012991031027 3.867535742674252 0  4.855508096805579 -0.2283975605264581 0  3.644517238097614 0.5646428152488787 0  0.05699603874439441 -0.6452791208413911 0  -0.3550018917972689 -0.5695324323732931 0  0.6
[...]
<PointData  Vectors="u"> 
<DataArray  type="Float64"  Name="u"  NumberOfComponents="3" format="ascii">0.0000000000000000e+00 0.0000000000000000e+00 0.0000000000000000e+00  0.0000000000000000e+00 0.0000000000000000e+00 0.0000000000000000e+00  0.0000000000000000e+00 0.0000000000000000e+00 0.0000000000000000e+00  0.0000000000000000e+00 0.0000000000000000e+00 0.0000000000000000e+00  0.0000000000000000e+00 0.0000000000000000e+00 0.0000000000000000e+00  0.0000000000000000e+00 0.0000000000000000e+00 0.0000000000000000e+00  0.0000000000000000e+00 0.0000000000000000e+00 0.0000000000000000e+00  0.0000000000000000e+00 0.0000000000000000e+00 0.0000000000000000e+00  0.0000000000000000e+00 0.0000000000000000e+00 0.0000000000000000e+00  0.0000000000000000e+00 0.0000000000000000e+00 0.0000000000000000e+00  0.0000000000000000e+00 0.0000000000000000e+00 0.0000000000000000e+00  0.0000000000000000e+00 0.0000000000000000e+00 0.0000000000000000e+00  0.0000000000000000e+00 0.0000000000000000e+00 0.0000000000000000e+00  0.0000000000000000e+00 0.0000000000000000e+00 0.0000000000000000e+00  0.0000000000000000e+00 0.0000000000000000e+00 0.0000000000000000e+00  0.0000000000000000e+00 0.0000000000000000e+00 0.0000000000000000e+00  0.0000000000000000e+00 0.0000000000000000e+00 0.0000000000000000e+00  0.0000000000000000e+00 0.0000000000000000e+00 0.0000000000000000e+00  0.0000000000000000e+00 0.0000000000000000e+00 0.0000000000000000e+00  0.0000000000000000e+00 0.0000000000000000e+00 0.0000000000000000e+00  0.0000000000000000e+00 0.0000000000000000e+00 0.0000000000000000e+00  0.0000000000000000e+00 0.0000000000000000e+00 0.0000000000000000e+00  0.0000000000000000e+00 0.0000000000000000e+00 0.0000000000000000e+00  0.0000000000000000e+00 0.0000000000000000e+00 0.0000000000000000e+00  0.0000000000000000e+00 0.0000000000000000e+00 0.0000000000000000e+00  0.0000000000000000e+00 0.0000000000000000e+00 0.0000000000000000e+00  0.0000000000000000e+00 0.0000000000000000e+00 0.0000000000000000e+00  0.0000000000000000e+00 0.0000000000000000e+00 0.0000000000000000e+00  0.0000000000000000e+00 0.0000000000000000e+00 0.0000000000000000e+00  0.0000000000000000e+00 0.0000000000000000e+00 0.0000000000000000e+00  0.0000000000000000e+00 0.0000000000000000e+00 0.0000000000000000e+00  0.0000000000000000e+00 0.0000000000000000e+00 0.0000000000000000e+00  0.0000000000000000e+00 0.0000000000000000e+00 0.0000000000000000e+00  0.0000000000000000e+00 0.0000000000000000e+00 0.0000000000000000e+00  0.0000000000000000e+00 0.0000000000000000e+00 0.0000000000000000e+00  0.0000000000000000e+00 0.0000000000000000e+00 0.0000000000000000e+00  -1.9857496373250081e-04 1.0309719293756311e-04 0.0000000000000000e+00  5.6143751737603581e-02 -1.1180821268887272e-05 0.0000000000000000e+00  5.3676408449817831e-02 5.7996314568485055e-05 0.0000000000000000e+00  5.6211730252301854e-02 4.3105189381565465e-06 0.0000000000000000e+00  5.6276909277826324e-02 3.7574322723907205e-05 0.0000000000000000e+00  1.3363701338729494e-05 5.6137178541641304e-02 0.0000000000000000e+00  -5.6055227050107494e-02 4.4985694665284155e-05 0.0000000000000000e+00  4.0811722223985199e-05 5.6062649725104219e-02 0.0000000000000000e+00  -5.3778433770305119e-02 1.2061329187469082e-04 0.0000000000000000e+00  6.1730284819894212e-06 -5.6097247746384624e-02 0.0000000000000000e+00  -6.6219889220686509e-06 -5.3629797410234201e-02 0.0000000000000000e+00  4.3213899622690925e-05 5.3565223310342330e-02 0.0000000000000000e+00  3.5769372781365919e-05 5.6090082983828886e-02 0.0000000000000000e+00  4.3379930432205382e-05 -5.6077891179521312e-02 0.0000000000000000e+00  7.1237129321648262e-05 -5.6157750611603205e-02 0.0000000000000000e+00  -5.6220077446587260e-02 -2.1837301885380410e-05 0.0000000000000000e+00  -5.6196422957473249e-02 -4.9618029569140774e-05 0.0000000000000000e+00  -6.9779557102216854e-05 5.6220009334588927e-02 0.0000000000000000e+00  5.6167937980049057e-02 -7.6915282899218813e-05 0.0000000000000000e+00  -8.5683607918098185e-05 -5.5989676297839540e-02 0.0000000000000000e+00  -5.6101370892314643e-02 -6.8865046508026175e-05 0.0000000000000000e+00  -3.6444240799139618e-02 -7.5087897867652242e-03 0.0000000000000000e+00  7.3333881168850777e-03 -3.5983795077941055e-02 0.0000000000000000e+00  3.5867311169001700e-02 7.4071231852742012e-03 0.0000000000000000e+00  7.5320863039801513e-03 3.6041474652870012e-02 0.0000000000000000e+00  0.0000000000000000e+00 0.0000000000000000e+00 0.0000000000000000e+00  0.0000000000000000e+00 0.0000000000000000e+00 0.0000000000000000e+00  0.0000000000000000e+00 0.0000000000000000e+00 0.0000000000000000e+00  0.0000000000000000e+00 0.0000000000000000e+00 0.0000000000000000e+00  -2.5121598872223701e-02 2.1233340410514456e-02 0.0000000000000000e+00  0.0000000000000000e+00 0.0000000000000000e+00 0.0000000000000000e+00  0.0000000000000000e+00 0.0000000000000000e+00 0.0000000000000000e+00  0.0000000000000000e+00 0.0000000000000000e+00 0.0000000000000000e+00  5.5904945739036481e-05 -5.3553929388718502e-02 0.0000000000000000e+00  0.0000000000000000e+00 0.0000000000000000e+00 0.0000000000000000e+00  -5.5921291154056196e-02 -2.0116826529426290e-06 0.0000000000000000e+00  -5.6330655706228284e-02 6.0994033214571690e-05 0.0000000000000000e+00  -5.6205780269725308e-02 2.4865340708380826e-05 0.0000000000000000e+00  0.0000000000000000e+00 0.0000000000000000e+00 0.0000000000000000e+00  0.0000000000000000e+00 0.0000000000000000e+00 0.0000000000000000e+00  3.4715851259128477e-05 5.6111821688475554e-02 0.0000000000000000e+00  -1.0850264331676234e-06 5.6230745710832863e-02 0.0000000000000000e+00  0.0000000000000000e+00 0.0000000000000000e+00 0.0000000000000000e+00  0.0000000000000000e+00 0.0000000000000000e+00 0.0000000000000000e+00  2.6384613993299632e-04 5.5906067568168377e-02 0.0000000000000000e+00  -3.8703310424421841e-04 5.5953059868895781e-02 0.0000000000000000e+00  0.0000000000000000e+00 0.0000000000000000e+00 0.0000000000000000e+00  0.0000000000000000e+00 0.0000000000000000e+00 0.0000000000000000e+00  3.8144050154207663e-05 -5.6120250973000142e-02 0.0000000000000000e+00  1.7373507772163571e-05 -5.6150051855074393e-02 0.0000000000000000e+00  0.0000000000000000e+00 0.0000000000000000e+00 0.0000000000000000e+00  -2.3472328979588311e-04 -5.5899972166723016e-02 0.0000000000000000e+00  4.7940014844033099e-04 -5.6019880628998403e-02 0.0000000000000000e+00  0.0000000000000000e+00 0.0000000000000000e+00 0.0000000000000000e+00  0.0000000000000000e+00 0.0000000000000000e+00 0.0000000000000000e+00  0.0000000000000000e+00 0.0000000000000000e+00 0.0000000000000000e+00  0.0000000000000000e+00 0.0000000000000000e+00 0.0000000000000000e+00  0.0000000000000000e+00 0.0000000000000000e+00 0.0000000000000000e+00  0.0000000000000000e+00 0.0000000000000000e+00 0.0000000000000000e+00  -5.5913184801052347e-02 3.4571437015366825e-04 0.0000000000000000e+00  -5.5905359090011680e-02 -3.5591808980744061e-04 0.0000000000000000e+00  0.0000000000000000e+00 0.0000000000000000e+00 0.0000000000000000e+00  0.0000000000000000e+00 0.0000000000000000e+00 0.0000000000000000e+00  0.0000000000000000e+00 0.0000000000000000e+00 0.0000000000000000e+00  0.0000000000000000e+00 0.0000000000000000e+00 0.0000000000000000e+00  0.0000000000000000e+00 0.0000000000000000e+00 0.0000000000000000e+00  0.0000000000000000e+00 0.0000000000000000e+00 0.0000000000000000e+00  5.6068385962717238e-02 3.5657574373398378e-04 0.0000000000000000e+00  5.6147847938298356e-02 -3.3553160094394280e-04 0.0000000000000000e+00  0.0000000000000000e+00 0.0000000000000000e+00 0.0000000000000000e+00  0.0000000000000000e+00 0.0000000000000000e+00 0.0000000000000000e+00  0.0000000000000000e+00 0.0000000000000000e+00 0.0000000000000000e+00  5.6034361923213087e-02 9.5471888697996562e-05 0.0000000000000000e+00  5.6191228911526551e-02 2.4953067261385050e-05 0.0000000000000000e+00  0.0000000000000000e+00 0.0000000000000000e+00 0.0000000000000000e+00  0.0000000000000000e+00 0.0000000000000000e+00 0.0000000000000000e+00  -1.0424921232973521e-02 4.7566785008509922e-02 0.0000000000000000e+00  4.8887413040783805e-02 -1.0153870399008740e-02 0.0000000000000000e+00  -9.7076927301314713e-03 -4.9344282834497592e-02 0.0000000000000000e+00  -4.9962217806070831e-02 9.1614362222741819e-03 0.0000000000000000e+00  3.6493062156910876e-05 -5.3517270369310047e-02 0.0000000000000000e+00  6.7374871915874797e-08 -5.6191633311654977e-02 0.0000000000000000e+00  -5.6259090932337635e-02 -8.0015269488351216e-05 0.0000000000000000e+00  4.3060258716231718e-06 5.6083990050975377e-02 0.0000000000000000e+00  4.1898669782419845e-05 5.6085953614447466e-02 0.0000000000000000e+00  2.3821875158628922e-02 -1.4863524005124458e-02 0.0000000000000000e+00  5.4331689828942875e-02 7.5679330133821346e-03 0.0000000000000000e+00  1.6083703593386273e-05 5.3551810833776754e-02 0.0000000000000000e+00  -1.4365229988099412e-02 -2.3815311533523179e-02 0.0000000000000000e+00  -5.6107652476763331e-02 -5.0763128484789758e-05 0.0000000000000000e+00  -5.6218123511493502e-02 5.6562921908953581e-06 0.0000000000000000e+00  2.3508144991259110e-05 -5.6092323522168606e-02 0.0000000000000000e+00  5.6304929370159691e-02 -2.9301465421709894e-06 0.0000000000000000e+00  5.6161272996692893e-02 5.5605322842841572e-05 0.0000000000000000e+00  5.6310061812807857e-02 6.7709713954851353e-06 0.0000000000000000e+00  5.3340439886631327e-02 -1.5255124281357980e-05 0.0000000000000000e+00  1.3518554075682608e-05 5.5948316310502212e-02 0.0000000000000000e+00  -3.2540489043584637e-05 5.6230009195805626e-02 0.0000000000000000e+00  -3.2570939184791293e-05 -5.6168425582064127e-02 0.0000000000000000e+00  8.0187864028639401e-03 5.5708412199267032e-02 0.0000000000000000e+00  -5.4869708759757753e-02 -7.4972968538383200e-03 0.0000000000000000e+00  7.6023531998507029e-03 -5.4416042594393782e-02 0.0000000000000000e+00  3.4984279041987470e-05 5.6109592720718679e-02 0.0000000000000000e+00  -2.6325339634944412e-05 -5.6184195737341222e-02 0.0000000000000000e+00  -5.6270235665514756e-02 -5.8266732890316592e-05 0.0000000000000000e+00  5.3975791191040637e-02 -1.6826054260579163e-06 0.0000000000000000e+00  -5.6149192952984123e-02 -3.0945923553289857e-05 0.0000000000000000e+00  5.6237265300610011e-02 -8.4916374816544919e-05 0.0000000000000000e+00  -5.6160603545987321e-02 -1.4585031325503825e-04 0.0000000000000000e+00  5.5046674062235402e-06 -5.6018103504185783e-02 0.0000000000000000e+00  2.0640735038294237e-05 5.6081107434310454e-02 0.0000000000000000e+00  5.4522755589187677e-02 1.1994389685674477e-04 0.0000000000000000e+00  5.5923267545670764e-02 -2.8978896002917883e-03 0.0000000000000000e+00  5.6221647834020762e-02 1.7867398696643287e-05 0.0000000000000000e+00  -9.3758868649888103e-06 5.6155387828924527e-02 0.0000000000000000e+00  -9.3604897968377831e-05 5.6055527064632370e-02 0.0000000000000000e+00  -5.6143060517460867e-02 -2.9845202538269566e-05 0.0000000000000000e+00  -5.6026622716442660e-02 2.8411272721524427e-03 0.0000000000000000e+00  -1.6538649802890959e-03 -5.5798840242499564e-02 0.0000000000000000e+00  -1.7812812532824842e-05 -5.6125910245024009e-02 0.0000000000000000e+00  -1.9375935025656636e-03 5.6149455164532812e-02 0.0000000000000000e+00  -5.6002733991056111e-02 9.6818312696237576e-05 0.0000000000000000e+00  1.1264193025486842e-04 -5.6070022695397605e-02 0.0000000000000000e+00  5.6215407572745318e-02 4.1642468060629549e-07 0.0000000000000000e+00  -5.4409896151651704e-02 -6.0349056285570695e-05 0.0000000000000000e+00  5.6187612702000893e-02 -4.2838561100963458e-06 0.0000000000000000e+00  5.4072825015077701e-02 -1.9047759983087720e-04 0.0000000000000000e+00  -5.4051863797474092e-02 -4.0578946114377962e-04 0.0000000000000000e+00  2.5762519734139137e-05 5.6125500332748844e-02 0.0000000000000000e+00  8.5882667097665914e-05 -5.6144134228397223e-02 0.0000000000000000e+00  5.3776843292034845e-02 1.4939955053648183e-03 0.0000000000000000e+00  1.5709183398104295e-03 5.5516875855018813e-02 0.0000000000000000e+00  5.8815527884065960e-05 5.6131189755376322e-02 0.0000000000000000e+00  5.4576270365997451e-02 1.0290714075024212e-04 0.0000000000000000e+00  -5.6201723673872800e-02 -6.2100096223679302e-06 0.0000000000000000e+00  -5.1145934040353079e-02 8.1319973887967326e-05 0.0000000000000000e+00  7.1740365444844742e-05 5.0127853002352694e-02 0.0000000000000000e+00  -1.3713021215275197e-05 -5.6225477682425466e-02 0.0000000000000000e+00  -2.2308002425536021e-04 -5.0762823131240691e-02 0.0000000000000000e+00  5.6233095983608261e-02 -4.1670916060286518e-05 0.0000000000000000e+00  5.0884639467123814e-02 1.3004536770556223e-04 0.0000000000000000e+00  4.0104663605803677e-05 5.1660239421654909e-02 0.0000000000000000e+00  -5.5392904372987127e-02 2.9400850897481174e-04 0.0000000000000000e+00  -2.0537690648993323e-04 -5.1571850090453154e-02 0.0000000000000000e+00  2.4851627612530573e-04 5.2200527736645089e-02 0.0000000000000000e+00  -1.0434684340233260e-04 -5.2408934099293751e-02 0.0000000000000000e+00  1.5712716639616865e-02 1.5507816329594552e-02 0.0000000000000000e+00  3.0060703510849055e-02 3.4584457629565996e-02 0.0000000000000000e+00  -4.0544935019289265e-03 1.9698534457679627e-02 0.0000000000000000e+00  1.8990774356336185e-03 -5.5551648900383686e-02 0.0000000000000000e+00  -5.5376779143231976e-02 -1.7368884182659935e-03 0.0000000000000000e+00  -2.3478567996973146e-05 5.6045399947716769e-02 0.0000000000000000e+00  -4.8307609361983168e-06 -5.6143909994403857e-02 0.0000000000000000e+00  0.0000000000000000e+00 0.0000000000000000e+00 0.0000000000000000e+00  0.0000000000000000e+00 0.0000000000000000e+00 0.0000000000000000e+00  2.4531275229214438e-03 -4.8234225575717819e-02 0.0000000000000000e+00  -4.8175087431484846e-02 -1.7134375570779564e-03 0.0000000000000000e+00  -1.8334552017915427e-02 -4.8126053703873989e-03 0.0000000000000000e+00  2.9807121904389305e-02 -3.9099253301345088e-02 0.0000000000000000e+00  -4.8677328902910488e-02 -2.2885756100731149e-02 0.0000000000000000e+00  4.7954486370542587e-02 1.1708563873560154e-03 0.0000000000000000e+00  4.7954474192724928e-04 4.7583261476865570e-02 0.0000000000000000e+00  4.9362326910994524e-03 -1.8157633452698815e-02 0.0000000000000000e+00  0.0000000000000000e+00 0.0000000000000000e+00 0.0000000000000000e+00  5.2471736977757422e-02 -8.0237749013582500e-04 0.0000000000000000e+00  -4.3511413483851577e-03 -5.6180505982846657e-02 0.0000000000000000e+00  0.0000000000000000e+00 0.0000000000000000e+00 0.0000000000000000e+00  2.1897495509475955e-04 -5.2436649121651746e-02 0.0000000000000000e+00  0.0000000000000000e+00 0.0000000000000000e+00 0.0000000000000000e+00  3.0101663963247094e-04 5.3041503253514657e-02 0.0000000000000000e+00  -5.3195387788435688e-02 -4.5735275950100111e-04 0.0000000000000000e+00  0.0000000000000000e+00 0.0000000000000000e+00 0.0000000000000000e+00  0.0000000000000000e+00 0.0000000000000000e+00 0.0000000000000000e+00  0.0000000000000000e+00 0.0000000000000000e+00 0.0000000000000000e+00  3.6591826231781183e-05 -5.6116844047329466e-02 0.0000000000000000e+00  -7.7743195416541650e-05 5.6032266540734510e-02 0.0000000000000000e+00  5.6163211796673385e-02 1.5358557192952887e-05 0.0000000000000000e+00  5.5540606464772525e-02 -7.7057803662271696e-04 0.0000000000000000e+00  -5.5976588730064093e-02 -4.1941084198610991e-05 0.0000000000000000e+00  3.7374988025746685e-05 -5.6050202361325831e-02 0.0000000000000000e+00  8.0069115804304916e-05 5.6196820269850227e-02 0.0000000000000000e+00  -5.6242748310231912e-02 8.4212485416598884e-06 0.0000000000000000e+00  5.1718441763173431e-02 3.9426403335884353e-06 0.0000000000000000e+00  0.0000000000000000e+00 0.0000000000000000e+00 0.0000000000000000e+00  0.0000000000000000e+00 0.0000000000000000e+00 0.0000000000000000e+00  1.0015822476037723e-03 -5.3451501998022524e-02 0.0000000000000000e+00  -2.9483332377138800e-04 5.3618379563990112e-02 0.0000000000000000e+00  0.0000000000000000e+00 0.0000000000000000e+00 0.0000000000000000e+00  -5.4894095891148451e-02 6.1546731958430625e-04 0.0000000000000000e+00  0.0000000000000000e+00 0.0000000000000000e+00 0.0000000000000000e+00  0.0000000000000000e+00 0.0000000000000000e+00 0.0000000000000000e+00  5.4740559444827773e-02 2.0867074518285538e-04 0.0000000000000000e+00  -5.4358747263703495e-02 -5.2240419397871224e-05 0.0000000000000000e+00  0.0000000000000000e+00 0.0000000000000000e+00 0.0000000000000000e+00  0.0000000000000000e+00 0.0000000000000000e+00 0.0000000000000000e+00  -2.6321163184208633e-02 -4.1458264745699670e-02 0.0000000000000000e+00  -9.1402036533808127e-05 -5.6252913333832900e-02 0.0000000000000000e+00  -5.6012665345218558e-02 1.1649009707552094e-04 0.0000000000000000e+00  5.6140882248511548e-02 -1.4914399006270203e-05 0.0000000000000000e+00  5.0812300559998989e-05 5.6149866537356971e-02 0.0000000000000000e+00  -5.3644412222990108e-02 -2.3018263092609441e-04 0.0000000000000000e+00  2.7882040871982105e-04 5.3345621811174526e-02 0.0000000000000000e+00  -1.3086528761407237e-04 5.2426505785422739e-02 0.0000000000000000e+00  1.8028239131303735e-04 -5.2962223304768713e-02 0.0000000000000000e+00  6.7089957127627461e-05 -5.6090601372252934e-02 0.0000000000000000e+00  0.0000000000000000e+00 0.0000000000000000e+00 0.0000000000000000e+00  6.9180078107414239e-06 -5.6112594923797429e-02 0.0000000000000000e+00  -2.9494677541657743e-02 5.7440321537010654e-03 0.0000000000000000e+00  -4.4074319455362554e-02 2.9382462791106276e-02 0.0000000000000000e+00  5.1301640328099085e-02 2.3528365110641696e-02 0.0000000000000000e+00  -3.6513380517827240e-03 -5.3134392752588196e-02 0.0000000000000000e+00  1.5974717043732149e-02 -1.2733789256752270e-04 0.0000000000000000e+00  -5.3654212425120806e-02 -4.5282310475638069e-04 0.0000000000000000e+00  1.8158603730107866e-05 -5.3453922275536379e-02 0.0000000000000000e+00  -4.7456207503328193e-04 5.3624621014957734e-02 0.0000000000000000e+00  5.3198142469711773e-02 1.0137219305118908e-04 0.0000000000000000e+00  5.3795922261821658e-02 9.0248610460328901e-05 0.0000000000000000e+00  4.2675366908295650e-04 5.5430111848039455e-02 0.0000000000000000e+00  5.4324374585595275e-02 7.5859495588862023e-04 0.0000000000000000e+00  5.6929500220513072e-05 -5.6134570459539741e-02 0.0000000000000000e+00  4.3213552756241570e-05 5.6148241309011297e-02 0.0000000000000000e+00  5.6060121980734040e-02 2.7877710430129063e-05 0.0000000000000000e+00  -5.6079945568760337e-02 1.0728110178004308e-04 0.0000000000000000e+00  -5.2868439239300104e-02 4.8121527005396823e-04 0.0000000000000000e+00  -4.2638218265691308e-04 -5.5327568248882554e-02 0.0000000000000000e+00  -3.1699481184053666e-04 -5.2394994665218311e-02 0.0000000000000000e+00  -5.5383087899194612e-02 9.3915086079429221e-04 0.0000000000000000e+00  5.6196576389024470e-02 3.5617732823618019e-05 0.0000000000000000e+00  2.3450277252898964e-05 5.6191487694088334e-02 0.0000000000000000e+00  5.5369508212485215e-02 7.8788101676238438e-04 0.0000000000000000e+00  -6.7063497317165028e-03 3.4998694415356295e-02 0.0000000000000000e+00  0.0000000000000000e+00 0.0000000000000000e+00 0.0000000000000000e+00  0.0000000000000000e+00 0.0000000000000000e+00 0.0000000000000000e+00  0.0000000000000000e+00 0.0000000000000000e+00 0.0000000000000000e+00  -1.3229944372571764e-05 5.6160288157737367e-02 0.0000000000000000e+00  4.6423965147680986e-05 5.5993408194350371e-02 0.0000000000000000e+00  5.5416921957817876e-05 -5.6025590249436381e-02 0.0000000000000000e+00  -5.6135658325299501e-02 2.5542922508652456e-05 0.0000000000000000e+00  0.0000000000000000e+00 0.0000000000000000e+00 0.0000000000000000e+00  -2.8573051709784135e-05 -5.6107931554679621e-02 0.0000000000000000e+00  0.0000000000000000e+00 0.0000000000000000e+00 0.0000000000000000e+00  -5.2194487408256968e-02 -1.6676495610881180e-05 0.0000000000000000e+00  -7.7918308872291711e-05 -5.6101418775156939e-02 0.0000000000000000e+00  -4.0417132091796768e-03 5.2113035733490055e-02 0.0000000000000000e+00  -5.8681801887806081e-03 5.4858238333836011e-02 0.0000000000000000e+00  -5.6296990136521188e-02 7.7033848022710399e-06