<?xml version="1.0"?>
<VTKFile type="UnstructuredGrid"  version="0.1"  >
<UnstructuredGrid>
<Piece  NumberOfPoints="778" NumberOfCells="1401">
<Points>
<DataArray  type="Float64"  NumberOfComponents="3"  format="ascii">1 -1 0  6 -1 0  6 1 0  1 1 0  1 6 0  -1 6 0  -1 1 0  -6 1 0  -6 -1 0  -1 -1 0  -1 -6 0  1 -6 0  1 3.5 0  -1 3.5 0  -1 -3.5 0  1 -3.5 0  3.5 -1 0  3.5 1 0  -3.5 -1 0  -3.5 1 0  -1 -2.25 0  1 -2.25 0  2.25 -1 0  2.25 1 0  -1 2.25 0  1 2.25 0  -1 4.75 0  1 4.75 0  -4.75 -1 0  -4.75 1 0  -2.25 1 0  -2.25 -1 0  1 -4.75 0  -1 -4.75 0  4.75 1 0  4.75 -1 0  0 0 0  -2.875 0 0  -1.625 0 0  -4.125 0 0  -6 0 0  0 2.875 0  2.875 0 0  0 6 0  1.625 0 0  0 -2.875 0  0 -1.625 0  0 1.625 0  0 4.125 0  0 -6 0  0 -4.125 0  4.125 0 0  6 0 0  -0.109375 5.0625 0  -5.0625 -0.109375 0  -0.109375 -5.0625 0  5.0625 0.109375 0  0.8125 -0.1875 0  -0.1875 -0.8125 0  -0.8125 0.1875 0  -0.1875 0.8125 0  1 5.375 0  -5.375 1 0  1 -5.375 0  5.375 -1 0  0.53515625 0.46484375 0  -5.375 -1 0  -1 5.375 0  -1 -5.375 0  -0.5 -6 0  5.375 1 0  6 0.5 0  3.5 0.3046875 0  3.43125 -0.34765625 0  2.875 -1 0  4.125 1 0  0.3046875 3.5 0  -0.34765625 3.56875 0  -1 4.125 0  1 4.125 0  -0.3046875 2.25 0  0.34765625 2.18125 0  1 1.625 0  -1 -1.625 0  -0.3046875 -3.5 0  0.34765625 -3.56875 0  1 -4.125 0  0.3046875 -2.25 0  -0.34765625 -2.18125 0  -1 -4.125 0  -1 -2.875 0  1 -2.875 0  1 -1.625 0  1.625 -1 0  1.625 1 0  2.25 0.3046875 0  2.18125 -0.34765625 0  4.125 -1 0  2.875 1 0  1 2.875 0  -1 1.625 0  -1 2.875 0  -4.125 -1 0  -2.25 0.3046875 0  -2.31875 -0.34765625 0  -2.875 -1 0  -1.625 1 0  -4.125 1 0  -3.5 0.3046875 0  -3.56875 -0.34765625 0  -1.625 -1 0  -2.875 1 0  0.380626321794301 1.06853329530276 0  -1.110819327731092 -0.3739495798319328 0  0.3739495798319328 -1.110819327731092 0  1.151210293219304 0.3991939332620648 0  -0.5 -4.4375 0  0.5 -4.4375 0  5.481553398058253 -0.3712833737864077 0  0.5 4.4375 0  0.5 6 0  -0.522503783594538 -0.3265648647465863 0  -1.3125 0.5 0  -0.5 6 0  0.3265648647465863 -0.522503783594538 0  4.4375 0.5 0  4.4375 -0.5 0  0.5 -6 0  -6 -0.5 0  -5.481553398058253 0.3712833737864077 0  -4.55 -0.4296875 0  -4.4375 0.5 0  -0.5 4.4375 0  0.4792930825242718 5.026881067961165 0  0.4792930825242718 -5.026881067961165 0  -0.5 1.3125 0  1.3125 -0.5 0  -0.5 -1.3125 0  0.25 5.518539952962044 0  0.2125133872612723 -5.500076563152851 0  4.969341874373811 -0.5152550785163683 0  -4.969341874373811 0.5152550785163683 0  3.927189744345589 -0.4712876597840069 0  -5.554036458333333 -0.25 0  5.554036458333333 0.25 0  -0.4690710616438356 -5.462756849315069 0  -0.4690710616438356 5.462756849315069 0  -6 0.5 0  -1.59556436210848 -0.5 0  -3.058421751829955 -0.5 0  -0.5 2.731982421875 0  0.5 2.691578248170045 0  2.691578248170045 -0.5 0  1.641211254104555 0.5 0  0.5 -1.768017578125 0  0.5 -3.058421751829955 0  0.5 1.699267578125 0  3.018017578125 0.5 0  -0.5 -3.018017578125 0  -2.731982421875 0.5 0  6 -0.5 0  -4.050017120925308 -0.5006099332648871 0  -3.940668202764977 0.5371363767281105 0  3.940668202764977 0.5371363767281105 0  0.4517449476047904 3.958458083832335 0  -0.4517449476047904 -3.958458083832335 0  -1.809331797235023 0.5371363767281105 0  -0.4517449476047904 1.791541916167665 0  -0.0546875 4.59375 0  -5.006445312499999 -0.58984375 0  4.605643203883496 -0.04725424757281554 0  4.90625 0.5546875 0  -0.5546875 4.90625 0  0.04725424757281554 -4.605643203883496 0  -0.586116118210531 -4.995821561900013 0  -4.603710222472543 0.04846236095466061 0  -3.1875 0.65234375 0  0.6163907621110913 3.147502300973589 0  2.5625 0.65234375 0  0.6163907621110913 -2.602497699026411 0  -0.637456713551384 3.189259902731882 0  -0.637456713551384 -2.560740097268118 0  -0.34765625 0.34765625 0  -0.639453125 0.708203125 0  0.089630126953125 0.437286376953125 0  -0.4238281249999999 -1.746875 0  1.746875 -0.4238281249999999 0  -0.4238281249999999 4.003125 0  0.4238281249999999 -4.003125 0  -2.5625 -1 0  3.1875 -1 0  -0.09375 -1.21875 0  1.21875 -0.09375 0  0.4020305405760241 -0.1120343241705621 0  -0.6280191027904287 -0.7577505545748082 0  0.90625 -0.59375 0  -1.205500904741459 0.03633725387965409 0  -0.02129048848213058 1.202028574265107 0  -0.1120343241705621 -0.4020305405760241 0  1 1.3125 0  -2.003587563743074 -0.6442361556699288 0  0.6640077663259718 -1.395873598614549 0  5.6875 -1 0  0.6308138580859101 -5.592151086468728 0  -5.6875 -1 0  0.6568032075915271 5.612942566073222 0  5.616530031741774 0.6612875396772174 0  -5.6875 1 0  1.9375 1 0  -1.3125 -1 0  0.1524679547155687 -3.232579139388032 0  0.1524679547155687 2.517420860611968 0  -3.232579139388032 -0.1524679547155687 0  -1.932320553757026 -0.252759244693845 0  2.517420860611968 -0.1524679547155687 0  -0.04776045819569434 -2.464949198504599 0  -0.2420369079104247 3.187693796852321 0  3.751304711039982 -0.1203080877045035 0  -5.397601941771943 -0.609026059866711 0  1.3125 1 0  1.9375 -1 0  -0.6946315101963667 -2.018229242739021 0  -0.6946315101963667 3.731770757260979 0  1 -3.8125 0  2.014364435550335 0.6166648446293641 0  -1 5.6875 0  -1 -5.6875 0  -2.653476149871182 -0.5942957192996303 0  3.096523850128818 -0.5942957192996303 0  1 1.9375 0  -3.8125 -1 0  0.586975531244212 -0.7975955463807081 0  -0.2946248980953088 -4.743710873809568 0  2.625453376770019 0.2814788818359375 0  -3.124546623229981 0.2814788818359375 0  -0.1204856417894853 5.631800603217465 0  5.253862011026742 0.6581468962876398 0  -0.65234375 2.108701557941197 0  0.65234375 3.641298442058803 0  -0.65234375 -3.641298442058803 0  -0.25 -5.744880569758637 0  -4.4375 -1 0  -0.3166212631734941 -2.713595940002554 0  0.6591479224207506 0.1324305912687024 0  0.8660781906552419 0.6468634238104103 0  -0.9887189158197679 0.6452930723873549 0  0.3149351927204296 -1.460971774996065 0  -0.3572852727880474 -0.009629022788047503 0  2.09375 -0.6866724363772454 0  0.6866724363772454 -3.65625 0  0.6866724363772454 2.09375 0  -3.65625 -0.6866724363772454 0  -3.5371337890625 0.65234375 0  -0.1389584113023952 1.944025352615082 0  -2.151744288472698 0.65234375 0  -0.1389584113023951 -3.805974647384918 0  0.1389584113023951 3.805974647384918 0  -2.578772109813904 0.1857224367977529 0  3.171227890186096 0.1857224367977529 0  3.360315647536819 0.65234375 0  0.1857224367977528 -1.921227890186096 0  0.65234375 -2.110315647536819 0  1.894016528727564 0.2415406141485869 0  -3.738232421875 0 0  0.2516875549238616 3.139069895099618 0  -1.913724396854074 0.2011142179916434 0  0.1669456568161915 0.7843410671359501 0  -2.5625 1 0  -1 -3.1875 0  -1 2.5625 0  0.1736601499778735 4.857955663330752 0  -0.1893536587212888 2.577300639071919 0  -0.1893536587212888 -3.172699360928081 0  3.852271904453858 0.206603749322895 0  -3.8125 1 0  -0.1250095034621793 -5.421707592768541 0  3.8125 -1 0  3.617304217264373 -0.6578427703661498 0  0.2630176195580202 -2.636558318495885 0  0.2674330357770522 1.399517071108871 0  0.631726413079416 1.339254523727593 0  4.700571879807737 0.2813704945051134 0  0.7143844363649634 -3.319538455208831 0  2.430461544791169 -0.7143844363649634 0  0.7143844363649634 2.430461544791169 0  -3.319538455208831 -0.7143844363649634 0  5.687045771608623 -0.6520598572553891 0  -5.687045771608623 0.6520598572553891 0  -1.15625 -0.7048248829733235 0  3.438284572973296 -0.01860298867862281 0  -0.03021088078697859 3.451572359862192 0  2.216682837011589 -0.02159585961918548 0  -2.191580885932936 -0.03126387444658879 0  0.1857410764408683 1.895679405349457 0  3.103473238297955 -0.253270943723272 0  -2.646526761702045 -0.253270943723272 0  -2.333137350671861 -0.6791984914172315 0  -1 5.0625 0  -0.6971235589909319 5.213002544375844 0  0.01618705363819947 2.225929180591695 0  0.01618705363819947 -3.524070819408305 0  0.5690054882403073 0.7951310720450595 0  -0.5764940424412852 -3.329579265180942 0  -0.5764940424412852 2.420420734819058 0  3.8125 1 0  -5.372163860234628 0.04365139563106807 0  5.164108319316826 -0.225040894204947 0  -5.361952437854323 0.6744012088984681 0  -5.0625 1 0  5.286835586913878 -0.6616705837083201 0  -5.692815197359722 0.1186699900166531 0  5.663425996156958 -0.07763197815533956 0  -0.9219866027132193 -0.1143045829323572 0  -1.394333629759332 -0.2233077430199216 0  0.09322478991596644 -0.9616596638655462 0  5.0625 -1 0  -0.14412109375 -1.92169189453125 0  -4.28125 -0.7212148987671345 0  0.2649796277366407 0.1735162902120744 0  -4.907855692236596 0.1868230509619793 0  -1.9375 1 0  1 5.0625 0  0.6915124486819284 -5.272938212550202 0  0.683483242673902 5.284948082526911 0  2.5625 -1 0  -1 -3.8125 0  -1 1.9375 0  5.0625 1 0  -1 -1.9375 0  1 5.6875 0  1 -5.6875 0  -1.9375 -1 0  -1 -2.5625 0  -1 3.1875 0  1 -3.1875 0  1 -2.5625 0  1 2.5625 0  1 3.1875 0  -5.0625 -1 0  -1 -1.3125 0  1.3125 -1 0  -1 1.3125 0  -1 3.8125 0  -1 4.4375 0  -4.4375 1 0  4.4375 -1 0  4.4375 1 0  -1.3125 1 0  1 4.4375 0  1 -4.4375 0  -1 -5.0625 0  -1 -4.4375 0  -3.1875 1 0  2.5625 1 0  1 -1.9375 0  1 -1.3125 0  5.6875 1 0  1 3.8125 0  3.1875 1 0  -3.1875 -1 0  1 -5.0625 0  1.35138038998199 0.6675097549271188 0  -0.465625 0.986328125 0  1.435958105992309 0.2563920171199723 0  1.915914614192913 -0.145782394639918 0  -0.8764440609469509 -0.5746869313612541 0  5.355194559946098 0.01566259380337612 0  -5.69333042954964 -0.5242868300459975 0  1.78125 -0.7320750794491524 0  0.7320750794491525 -3.96875 0  -0.3959075548864684 5.166422468926435 0  -4.770522389068053 -0.2123670725088856 0  -4.714160156249999 -0.69234375 0  -4.273484403713342 -0.278160994327167 0  0.9642590244517505 0.08196089404241463 0  0.3500261717645397 -4.727285205957206 0  0.6740868006020392 -4.765147848348443 0  0.6797550207247084 -1.089747806381148 0  -5.186479934354063 0.3046329157552757 0  -5.263288238215326 -0.3369092276308425 0  -2.433484016245305 0.5442571297016638 0  0.1707808983307866 -3.82363304980935 0  -0.1554012991031027 3.867535742674252 0  4.855508096805579 -0.2283975605264581 0  3.644517238097614 0.5646428152488787 0  0.05699603874439441 -0.6452791208413911 0  -0.3550018917972689 -0.5695324323732931 0  0.6
[...]
<PointData  Vectors="u"> 
<DataArray  type="Float64"  Name="u"  NumberOfComponents="3" format="ascii">0.0000000000000000e+00 0.0000000000000000e+00 0.0000000000000000e+00  0.0000000000000000e+00 0.0000000000000000e+00 0.0000000000000000e+00  0.0000000000000000e+00 0.0000000000000000e+00 0.0000000000000000e+00  0.0000000000000000e+00 0.0000000000000000e+00 0.0000000000000000e+00  0.0000000000000000e+00 0.0000000000000000e+00 0.0000000000000000e+00  0.0000000000000000e+00 0.0000000000000000e+00 0.0000000000000000e+00  0.0000000000000000e+00 0.0000000000000000e+00 0.0000000000000000e+00  0.0000000000000000e+00 0.0000000000000000e+00 0.0000000000000000e+00  0.0000000000000000e+00 0.0000000000000000e+00 0.0000000000000000e+00  0.0000000000000000e+00 0.0000000000000000e+00 0.0000000000000000e+00  0.0000000000000000e+00 0.0000000000000000e+00 0.0000000000000000e+00  0.0000000000000000e+00 0.0000000000000000e+00 0.0000000000000000e+00  0.0000000000000000e+00 0.0000000000000000e+00 0.0000000000000000e+00  0.0000000000000000e+00 0.0000000000000000e+00 0.0000000000000000e+00  0.0000000000000000e+00 0.0000000000000000e+00 0.0000000000000000e+00  0.0000000000000000e+00 0.0000000000000000e+00 0.0000000000000000e+00  0.0000000000000000e+00 0.0000000000000000e+00 0.0000000000000000e+00  0.0000000000000000e+00 0.0000000000000000e+00 0.0000000000000000e+00  0.0000000000000000e+00 0.0000000000000000e+00 0.0000000000000000e+00  0.0000000000000000e+00 0.0000000000000000e+00 0.0000000000000000e+00  0.0000000000000000e+00 0.0000000000000000e+00 0.0000000000000000e+00  0.0000000000000000e+00 0.0000000000000000e+00 0.0000000000000000e+00  0.0000000000000000e+00 0.0000000000000000e+00 0.0000000000000000e+00  0.0000000000000000e+00 0.0000000000000000e+00 0.0000000000000000e+00  0.0000000000000000e+00 0.0000000000000000e+00 0.0000000000000000e+00  0.0000000000000000e+00 0.0000000000000000e+00 0.0000000000000000e+00  0.0000000000000000e+00 0.0000000000000000e+00 0.0000000000000000e+00  0.0000000000000000e+00 0.0000000000000000e+00 0.0000000000000000e+00  0.0000000000000000e+00 0.0000000000000000e+00 0.0000000000000000e+00  0.0000000000000000e+00 0.0000000000000000e+00 0.0000000000000000e+00  0.0000000000000000e+00 0.0000000000000000e+00 0.0000000000000000e+00  0.0000000000000000e+00 0.0000000000000000e+00 0.0000000000000000e+00  0.0000000000000000e+00 0.0000000000000000e+00 0.0000000000000000e+00  0.0000000000000000e+00 0.0000000000000000e+00 0.0000000000000000e+00  0.0000000000000000e+00 0.0000000000000000e+00 0.0000000000000000e+00  0.0000000000000000e+00 0.0000000000000000e+00 0.0000000000000000e+00  -1.4023716889015737e-04 4.5572955564663959e-05 0.0000000000000000e+00  2.4155488691021906e-02 -6.6315561649358087e-06 0.0000000000000000e+00  2.2988050564694138e-02 5.9589533736828282e-05 0.0000000000000000e+00  2.4170701672115918e-02 3.6531242911951116e-07 0.0000000000000000e+00  2.4195668570043620e-02 2.0570198855333104e-05 0.0000000000000000e+00  5.8266905255536748e-06 2.4121193335128750e-02 0.0000000000000000e+00  -2.4099079366026111e-02 2.6817815792304353e-05 0.0000000000000000e+00  2.1494229848942211e-05 2.4120853525431703e-02 0.0000000000000000e+00  -2.3035845373625588e-02 7.8041419368747594e-05 0.0000000000000000e+00  7.1902113717949303e-06 -2.4120637007199675e-02 0.0000000000000000e+00  -2.7212412607441675e-05 -2.2866852799900802e-02 0.0000000000000000e+00  2.4683750634294042e-05 2.2857934320051603e-02 0.0000000000000000e+00  2.3973140844438003e-05 2.4128152259147578e-02 0.0000000000000000e+00  2.3369487234054599e-05 -2.4122319675214086e-02 0.0000000000000000e+00  3.3533995762196127e-05 -2.4160183318968170e-02 0.0000000000000000e+00  -2.4182178831824254e-02 -5.1217295308359273e-06 0.0000000000000000e+00  -2.4147947030853715e-02 -2.3226990362125114e-05 0.0000000000000000e+00  -2.6499758236620848e-05 2.4186368839424762e-02 0.0000000000000000e+00  2.4125419640744827e-02 -2.3512375833318115e-05 0.0000000000000000e+00  -3.6641972936614836e-05 -2.3983111986685245e-02 0.0000000000000000e+00  -2.4060388214342456e-02 -2.7208445367942986e-05 0.0000000000000000e+00  -1.5535968814041097e-02 -3.2975462305983236e-03 0.0000000000000000e+00  3.0497155877420774e-03 -1.5182270588889791e-02 0.0000000000000000e+00  1.5128836012056321e-02 3.3082092524192794e-03 0.0000000000000000e+00  3.2532364881489714e-03 1.5202924956172991e-02 0.0000000000000000e+00  0.0000000000000000e+00 0.0000000000000000e+00 0.0000000000000000e+00  0.0000000000000000e+00 0.0000000000000000e+00 0.0000000000000000e+00  0.0000000000000000e+00 0.0000000000000000e+00 0.0000000000000000e+00  0.0000000000000000e+00 0.0000000000000000e+00 0.0000000000000000e+00  -1.0731286819441696e-02 8.9435708655912199e-03 0.0000000000000000e+00  0.0000000000000000e+00 0.0000000000000000e+00 0.0000000000000000e+00  0.0000000000000000e+00 0.0000000000000000e+00 0.0000000000000000e+00  0.0000000000000000e+00 0.0000000000000000e+00 0.0000000000000000e+00  4.4578410835436362e-05 -2.3034774214447766e-02 0.0000000000000000e+00  0.0000000000000000e+00 0.0000000000000000e+00 0.0000000000000000e+00  -2.4080460452022261e-02 -3.3874306712593551e-06 0.0000000000000000e+00  -2.3951157544161029e-02 3.9103878655479973e-05 0.0000000000000000e+00  -2.3881998430080681e-02 -5.5421525541791777e-06 0.0000000000000000e+00  0.0000000000000000e+00 0.0000000000000000e+00 0.0000000000000000e+00  0.0000000000000000e+00 0.0000000000000000e+00 0.0000000000000000e+00  1.1491075812527369e-05 2.4058605141247368e-02 0.0000000000000000e+00  -8.0187319823516476e-06 2.4057301368686307e-02 0.0000000000000000e+00  0.0000000000000000e+00 0.0000000000000000e+00 0.0000000000000000e+00  0.0000000000000000e+00 0.0000000000000000e+00 0.0000000000000000e+00  1.1728699566956043e-04 2.3836544422828142e-02 0.0000000000000000e+00  -1.9681051916536747e-04 2.3978066316052649e-02 0.0000000000000000e+00  0.0000000000000000e+00 0.0000000000000000e+00 0.0000000000000000e+00  0.0000000000000000e+00 0.0000000000000000e+00 0.0000000000000000e+00  3.9034877858596531e-05 -2.3964357235271835e-02 0.0000000000000000e+00  8.3190091476497561e-06 -2.4085287359556663e-02 0.0000000000000000e+00  0.0000000000000000e+00 0.0000000000000000e+00 0.0000000000000000e+00  -1.1083881234002898e-04 -2.4024890181588439e-02 0.0000000000000000e+00  2.3764843433137211e-04 -2.3928022018324210e-02 0.0000000000000000e+00  0.0000000000000000e+00 0.0000000000000000e+00 0.0000000000000000e+00  0.0000000000000000e+00 0.0000000000000000e+00 0.0000000000000000e+00  0.0000000000000000e+00 0.0000000000000000e+00 0.0000000000000000e+00  0.0000000000000000e+00 0.0000000000000000e+00 0.0000000000000000e+00  0.0000000000000000e+00 0.0000000000000000e+00 0.0000000000000000e+00  0.0000000000000000e+00 0.0000000000000000e+00 0.0000000000000000e+00  -2.3763905448344849e-02 1.8806728839190824e-04 0.0000000000000000e+00  -2.3961815872461979e-02 -1.6748482674486763e-04 0.0000000000000000e+00  0.0000000000000000e+00 0.0000000000000000e+00 0.0000000000000000e+00  0.0000000000000000e+00 0.0000000000000000e+00 0.0000000000000000e+00  0.0000000000000000e+00 0.0000000000000000e+00 0.0000000000000000e+00  0.0000000000000000e+00 0.0000000000000000e+00 0.0000000000000000e+00  0.0000000000000000e+00 0.0000000000000000e+00 0.0000000000000000e+00  0.0000000000000000e+00 0.0000000000000000e+00 0.0000000000000000e+00  2.3769005256446964e-02 2.1310910896738848e-04 0.0000000000000000e+00  2.3847072998742495e-02 -1.4092651892407009e-04 0.0000000000000000e+00  0.0000000000000000e+00 0.0000000000000000e+00 0.0000000000000000e+00  0.0000000000000000e+00 0.0000000000000000e+00 0.0000000000000000e+00  0.0000000000000000e+00 0.0000000000000000e+00 0.0000000000000000e+00  2.3805571631170561e-02 3.9465699062717289e-05 0.0000000000000000e+00  2.4107488075983841e-02 1.1183707836336698e-05 0.0000000000000000e+00  0.0000000000000000e+00 0.0000000000000000e+00 0.0000000000000000e+00  0.0000000000000000e+00 0.0000000000000000e+00 0.0000000000000000e+00  -4.4644676160109052e-03 2.0025387325560060e-02 0.0000000000000000e+00  2.0659390362046122e-02 -4.5355848240014457e-03 0.0000000000000000e+00  -4.1478526073570610e-03 -2.0919545258693117e-02 0.0000000000000000e+00  -2.1142896066658982e-02 4.0072870785912221e-03 0.0000000000000000e+00  3.4114949968215893e-05 -2.2884363231661129e-02 0.0000000000000000e+00  -5.9975741122526073e-06 -2.4052708498410749e-02 0.0000000000000000e+00  -2.3938709917871986e-02 -2.6908309483547270e-05 0.0000000000000000e+00  -5.3399360252596211e-07 2.4013852348943272e-02 0.0000000000000000e+00  4.5968139480056558e-05 2.3882142807035395e-02 0.0000000000000000e+00  1.0127072044110508e-02 -6.3387412308902099e-03 0.0000000000000000e+00  2.3004741821260635e-02 3.2986440070045201e-03 0.0000000000000000e+00  3.1351572443370143e-05 2.3005204259227821e-02 0.0000000000000000e+00  -5.9594390353421550e-03 -1.0010821198134585e-02 0.0000000000000000e+00  -2.3800867801192824e-02 1.9041288705726141e-05 0.0000000000000000e+00  -2.4068595171381314e-02 9.5667708379555908e-06 0.0000000000000000e+00  4.6387523553835310e-05 -2.3819711810224159e-02 0.0000000000000000e+00  2.4114277082961582e-02 1.0099894643972104e-05 0.0000000000000000e+00  2.3888668296557888e-02 3.1369935588188937e-05 0.0000000000000000e+00  2.4033254914594064e-02 5.4996411012379042e-06 0.0000000000000000e+00  2.2714066726884377e-02 -9.9108499015495318e-06 0.0000000000000000e+00  3.1326228891145435e-05 2.3845498161213920e-02 0.0000000000000000e+00  -3.0523251822042926e-05 2.4053676719660730e-02 0.0000000000000000e+00  -1.2543633766626263e-05 -2.3953600545266136e-02 0.0000000000000000e+00  3.7482550283623140e-03 2.3744429791569346e-02 0.0000000000000000e+00  -2.3241923642008055e-02 -3.5039403387978224e-03 0.0000000000000000e+00  3.2568315435263159e-03 -2.3046475005748641e-02 0.0000000000000000e+00  1.7876857855003162e-05 2.4066456360532257e-02 0.0000000000000000e+00  -1.0353263170073686e-05 -2.4178011668963627e-02 0.0000000000000000e+00  -2.4088758805555895e-02 -4.8196971209161837e-05 0.0000000000000000e+00  2.2809118184706247e-02 1.4189222459852804e-05 0.0000000000000000e+00  -2.3909731608583125e-02 -1.1900361813034844e-05 0.0000000000000000e+00  2.3967110854960078e-02 -9.0750854617908105e-06 0.0000000000000000e+00  -2.4082450422210844e-02 -6.4592327893293999e-05 0.0000000000000000e+00  8.2180336461295039e-06 -2.3916321073472881e-02 0.0000000000000000e+00  3.0837611055679062e-06 2.3895319810368403e-02 0.0000000000000000e+00  2.3211515429920136e-02 6.7118430820335329e-05 0.0000000000000000e+00  2.3871719927165646e-02 -1.3450131971494770e-03 0.0000000000000000e+00  2.3993036203612081e-02 -1.0566802035039379e-06 0.0000000000000000e+00  1.3968617723942391e-05 2.3951856659636346e-02 0.0000000000000000e+00  -5.8874528803615180e-05 2.3858509922235604e-02 0.0000000000000000e+00  -2.3951123097747957e-02 -8.1465558636530562e-06 0.0000000000000000e+00  -2.3909877913947355e-02 1.3676975713963096e-03 0.0000000000000000e+00  -8.9481109284555202e-04 -2.3892793209962938e-02 0.0000000000000000e+00  1.0199436882796519e-05 -2.3860481810415991e-02 0.0000000000000000e+00  -9.9094041372859635e-04 2.4068634972955191e-02 0.0000000000000000e+00  -2.4020184955852168e-02 6.3971402369209689e-05 0.0000000000000000e+00  3.5221544352916035e-05 -2.3927228121267921e-02 0.0000000000000000e+00  2.3864774072924005e-02 2.9118613347499907e-06 0.0000000000000000e+00  -2.3015805934296665e-02 -5.7440484420046050e-06 0.0000000000000000e+00  2.4065088369785482e-02 -3.4371584059520236e-06 0.0000000000000000e+00  2.2916735241987677e-02 -8.5968260674972182e-05 0.0000000000000000e+00  -2.2940745537892826e-02 -1.7797263854041315e-04 0.0000000000000000e+00  2.7697396524386537e-05 2.3904279247050401e-02 0.0000000000000000e+00  3.8993256046606075e-05 -2.3877099262288020e-02 0.0000000000000000e+00  2.2914169397843440e-02 7.0974721212882714e-04 0.0000000000000000e+00  7.8185344457646754e-04 2.3693689427572179e-02 0.0000000000000000e+00  3.0850092436317435e-05 2.4130652521512006e-02 0.0000000000000000e+00  2.3105734319365603e-02 2.7607751268599956e-06 0.0000000000000000e+00  -2.4167699829262611e-02 -5.9253230498180601e-06 0.0000000000000000e+00  -2.0883180391168276e-02 4.6833876364153166e-05 0.0000000000000000e+00  2.5567319000807741e-05 2.0162847172799196e-02 0.0000000000000000e+00  -4.2551858183214426e-06 -2.4174938464498582e-02 0.0000000000000000e+00  -7.6390441158472484e-05 -2.0558620034119797e-02 0.0000000000000000e+00  2.4164002517850478e-02 -1.2662249579113541e-05 0.0000000000000000e+00  2.0284473870669287e-02 3.7588447783416269e-05 0.0000000000000000e+00  -5.0401132196546599e-07 2.0969767020020531e-02 0.0000000000000000e+00  -2.3432676420285091e-02 1.4892655630310188e-04 0.0000000000000000e+00  -4.3450506517562288e-05 -2.0947832741418881e-02 0.0000000000000000e+00  8.4397669733232697e-05 2.0971951275003037e-02 0.0000000000000000e+00  -1.1982004883995726e-05 -2.0726609958250427e-02 0.0000000000000000e+00  6.6213337677114500e-03 6.4289150104757968e-03 0.0000000000000000e+00  1.2480680848689335e-02 1.4547584492065413e-02 0.0000000000000000e+00  -1.6482626814386958e-03 8.3124351668089087e-03 0.0000000000000000e+00  9.2483051968707080e-04 -2.3701708316334436e-02 0.0000000000000000e+00  -2.3657526618928258e-02 -8.2669126241709918e-04 0.0000000000000000e+00  -1.2925992127981446e-05 2.3861760720564916e-02 0.0000000000000000e+00  7.8676572588343154e-06 -2.3907140304041907e-02 0.0000000000000000e+00  0.0000000000000000e+00 0.0000000000000000e+00 0.0000000000000000e+00  0.0000000000000000e+00 0.0000000000000000e+00 0.0000000000000000e+00  1.0927526057843589e-03 -2.0424346400973906e-02 0.0000000000000000e+00  -2.0531134892743257e-02 -6.5373223304034892e-04 0.0000000000000000e+00  -7.7567279221598569e-03 -1.9892618673461038e-03 0.0000000000000000e+00  1.2880689341882006e-02 -1.6572003091412851e-02 0.0000000000000000e+00  -2.0479732188275909e-02 -1.0123298349889346e-02 0.0000000000000000e+00  2.0496681567575066e-02 6.0261346071739999e-04 0.0000000000000000e+00  1.3242982209099176e-04 2.0233586257782987e-02 0.0000000000000000e+00  2.0437625078933387e-03 -7.6835576350471665e-03 0.0000000000000000e+00  0.0000000000000000e+00 0.0000000000000000e+00 0.0000000000000000e+00  2.1190688928588816e-02 -3.4936413053638683e-04 0.0000000000000000e+00  -2.5716927847702154e-03 -2.3904231686564501e-02 0.0000000000000000e+00  0.0000000000000000e+00 0.0000000000000000e+00 0.0000000000000000e+00  8.7564911313538579e-05 -2.1042060794657074e-02 0.0000000000000000e+00  0.0000000000000000e+00 0.0000000000000000e+00 0.0000000000000000e+00  1.1309409895637644e-04 2.1498050715020464e-02 0.0000000000000000e+00  -2.1575651897539044e-02 -1.7545291638455080e-04 0.0000000000000000e+00  0.0000000000000000e+00 0.0000000000000000e+00 0.0000000000000000e+00  0.0000000000000000e+00 0.0000000000000000e+00 0.0000000000000000e+00  0.0000000000000000e+00 0.0000000000000000e+00 0.0000000000000000e+00  1.3953082874040795e-05 -2.4115092641176016e-02 0.0000000000000000e+00  -4.2991723249234193e-05 2.4066029066878457e-02 0.0000000000000000e+00  2.4150964935103984e-02 5.7545838844876719e-06 0.0000000000000000e+00  2.3767896583383134e-02 -3.7292278066545050e-04 0.0000000000000000e+00  -2.4053868400900989e-02 -2.2647454375541629e-05 0.0000000000000000e+00  1.7821712356658237e-05 -2.4073707312903272e-02 0.0000000000000000e+00  2.6952489178973816e-05 2.4010733374542004e-02 0.0000000000000000e+00  -2.4168483478678067e-02 4.5373740957894539e-06 0.0000000000000000e+00  2.0557413242895152e-02 1.0435193165646868e-06 0.0000000000000000e+00  0.0000000000000000e+00 0.0000000000000000e+00 0.0000000000000000e+00  0.0000000000000000e+00 0.0000000000000000e+00 0.0000000000000000e+00  4.9121597035866466e-04 -2.1547417454644217e-02 0.0000000000000000e+00  -1.1167578010601191e-04 2.1523865659600527e-02 0.0000000000000000e+00  0.0000000000000000e+00 0.0000000000000000e+00 0.0000000000000000e+00  -2.3219755860537952e-02 3.1955520142733625e-04 0.0000000000000000e+00  0.0000000000000000e+00 0.0000000000000000e+00 0.0000000000000000e+00  0.0000000000000000e+00 0.0000000000000000e+00 0.0000000000000000e+00  2.3314616034595691e-02 6.4957442616678479e-05 0.0000000000000000e+00  -2.3146740201151417e-02 -2.9199661759358614e-05 0.0000000000000000e+00  0.0000000000000000e+00 0.0000000000000000e+00 0.0000000000000000e+00  0.0000000000000000e+00 0.0000000000000000e+00 0.0000000000000000e+00  -1.1225027444064185e-02 -1.7499862589524160e-02 0.0000000000000000e+00  -1.9338412548100997e-05 -2.3867603146913094e-02 0.0000000000000000e+00  -2.3928286138340662e-02 7.7408293195643601e-05 0.0000000000000000e+00  2.4043173626469773e-02 1.6410970123092977e-06 0.0000000000000000e+00  1.9925406447897010e-05 2.4149004350902802e-02 0.0000000000000000e+00  -2.1521254128665131e-02 -1.0929991628500674e-04 0.0000000000000000e+00  1.4213523744777850e-04 2.1253868316388820e-02 0.0000000000000000e+00  -1.4360993812751351e-05 2.1141697814996252e-02 0.0000000000000000e+00  6.8803571429618045e-05 -2.1146942608419799e-02 0.0000000000000000e+00  2.5620207857936109e-05 -2.3934592976537047e-02 0.0000000000000000e+00  0.0000000000000000e+00 0.0000000000000000e+00 0.0000000000000000e+00  4.1354468184540228e-06 -2.3878966673916893e-02 0.0000000000000000e+00  -1.2353991752516582e-02 2.5202204342318632e-03 0.0000000000000000e+00  -1.8662356254281143e-02 1.2552973304614093e-02 0.0000000000000000e+00  2.1606558779668075e-02 1.0105844955725909e-02 0.0000000000000000e+00  -1.7496033886950167e-03 -2.2665804959661487e-02 0.0000000000000000e+00  6.6837388437570215e-03 1.1429364112528048e-04 0.0000000000000000e+00  -2.1756470690337464e-02 -2.2333263179143980e-04 0.0000000000000000e+00  7.5241595541763611e-06 -2.1754340093149114e-02 0.0000000000000000e+00  -2.3555387489049637e-04 2.1741261574140809e-02 0.0000000000000000e+00  2.1512996105754058e-02 2.8661292784306980e-05 0.0000000000000000e+00  2.1493512030729661e-02 3.1638769077252314e-06 0.0000000000000000e+00  1.9791525716152336e-04 2.3774299388766081e-02 0.0000000000000000e+00  2.1558968202183487e-02 3.9366791916726205e-04 0.0000000000000000e+00  3.3162390953202393e-05 -2.4130715886793819e-02 0.0000000000000000e+00  2.1737047485559520e-05 2.4140604369327887e-02 0.0000000000000000e+00  2.4012031470262887e-02 2.8852352729881583e-05 0.0000000000000000e+00  -2.4124843671215618e-02 4.5856760732259307e-05 0.0000000000000000e+00  -2.0968471968796913e-02 1.7190223553851947e-04 0.0000000000000000e+00  -1.9119635181227894e-04 -2.3745598094027695e-02 0.0000000000000000e+00  -1.8300637429467730e-04 -2.0797146179972706e-02 0.0000000000000000e+00  -2.3729439174649081e-02 4.7671579104678852e-04 0.0000000000000000e+00  2.4159810733136975e-02 1.9032017150250018e-05 0.0000000000000000e+00  7.0375988555362031e-06 2.4083514502237814e-02 0.0000000000000000e+00  2.3741535127246197e-02 3.9352863906651968e-04 0.0000000000000000e+00  -2.7921068259938431e-03 1.4815836503508369e-02 0.0000000000000000e+00  0.0000000000000000e+00 0.0000000000000000e+00 0.0000000000000000e+00  0.0000000000000000e+00 0.0000000000000000e+00 0.0000000000000000e+00  0.0000000000000000e+00 0.0000000000000000e+00 0.0000000000000000e+00  -8.4972093573214334e-06 2.4159980997492558e-02 0.0000000000000000e+00  2.2108348966651466e-05 2.4040502923288180e-02 0.0000000000000000e+00  2.7340436639197213e-05 -2.4075141064644184e-02 0.0000000000000000e+00  -2.3955513067020567e-02 -9.1776464956482384e-06 0.0000000000000000e+00  0.0000000000000000e+00 0.0000000000000000e+00 0.0000000000000000e+00  -6.9818478740609589e-06 -2.4125807730916823e-02 0.0000000000000000e+00  0.0000000000000000e+00 0.0000000000000000e+00 0.0000000000000000e+00  -2.0913235617205463e-02 -2.7280000390260991e-05 0.0000000000000000e+00  -4.2818686971385291e-05 -2.4051364509331839e-02 0.0000000000000000e+00  -1.9402935615757992e-03 2.2131894688892251e-02 0.0000000000000000e+00  -3.2596338118556739e-03 2.3495509403719708e-02 0.0000000000000000e+00  -2.4135906717481184e-02 3.7134931313899819e-06 0