<?xml version="1.0"?>
<VTKFile type="UnstructuredGrid"  version="0.1"  >
<UnstructuredGrid>
<Piece  NumberOfPoints="778" NumberOfCells="1401">
<Points>
<DataArray  type="Float64"  NumberOfComponents="3"  format="ascii">1 -1 0  6 -1 0  6 1 0  1 1 0  1 6 0  -1 6 0  -1 1 0  -6 1 0  -6 -1 0  -1 -1 0  -1 -6 0  1 -6 0  1 3.5 0  -1 3.5 0  -1 -3.5 0  1 -3.5 0  3.5 -1 0  3.5 1 0  -3.5 -1 0  -3.5 1 0  -1 -2.25 0  1 -2.25 0  2.25 -1 0  2.25 1 0  -1 2.25 0  1 2.25 0  -1 4.75 0  1 4.75 0  -4.75 -1 0  -4.75 1 0  -2.25 1 0  -2.25 -1 0  1 -4.75 0  -1 -4.75 0  4.75 1 0  4.75 -1 0  0 0 0  -2.875 0 0  -1.625 0 0  -4.125 0 0  -6 0 0  0 2.875 0  2.875 0 0  0 6 0  1.625 0 0  0 -2.875 0  0 -1.625 0  0 1.625 0  0 4.125 0  0 -6 0  0 -4.125 0  4.125 0 0  6 0 0  -0.109375 5.0625 0  -5.0625 -0.109375 0  -0.109375 -5.0625 0  5.0625 0.109375 0  0.8125 -0.1875 0  -0.1875 -0.8125 0  -0.8125 0.1875 0  -0.1875 0.8125 0  1 5.375 0  -5.375 1 0  1 -5.375 0  5.375 -1 0  0.53515625 0.46484375 0  -5.375 -1 0  -1 5.375 0  -1 -5.375 0  -0.5 -6 0  5.375 1 0  6 0.5 0  3.5 0.3046875 0  3.43125 -0.34765625 0  2.875 -1 0  4.125 1 0  0.3046875 3.5 0  -0.34765625 3.56875 0  -1 4.125 0  1 4.125 0  -0.3046875 2.25 0  0.34765625 2.18125 0  1 1.625 0  -1 -1.625 0  -0.3046875 -3.5 0  0.34765625 -3.56875 0  1 -4.125 0  0.3046875 -2.25 0  -0.34765625 -2.18125 0  -1 -4.125 0  -1 -2.875 0  1 -2.875 0  1 -1.625 0  1.625 -1 0  1.625 1 0  2.25 0.3046875 0  2.18125 -0.34765625 0  4.125 -1 0  2.875 1 0  1 2.875 0  -1 1.625 0  -1 2.875 0  -4.125 -1 0  -2.25 0.3046875 0  -2.31875 -0.34765625 0  -2.875 -1 0  -1.625 1 0  -4.125 1 0  -3.5 0.3046875 0  -3.56875 -0.34765625 0  -1.625 -1 0  -2.875 1 0  0.380626321794301 1.06853329530276 0  -1.110819327731092 -0.3739495798319328 0  0.3739495798319328 -1.110819327731092 0  1.151210293219304 0.3991939332620648 0  -0.5 -4.4375 0  0.5 -4.4375 0  5.481553398058253 -0.3712833737864077 0  0.5 4.4375 0  0.5 6 0  -0.522503783594538 -0.3265648647465863 0  -1.3125 0.5 0  -0.5 6 0  0.3265648647465863 -0.522503783594538 0  4.4375 0.5 0  4.4375 -0.5 0  0.5 -6 0  -6 -0.5 0  -5.481553398058253 0.3712833737864077 0  -4.55 -0.4296875 0  -4.4375 0.5 0  -0.5 4.4375 0  0.4792930825242718 5.026881067961165 0  0.4792930825242718 -5.026881067961165 0  -0.5 1.3125 0  1.3125 -0.5 0  -0.5 -1.3125 0  0.25 5.518539952962044 0  0.2125133872612723 -5.500076563152851 0  4.969341874373811 -0.5152550785163683 0  -4.969341874373811 0.5152550785163683 0  3.927189744345589 -0.4712876597840069 0  -5.554036458333333 -0.25 0  5.554036458333333 0.25 0  -0.4690710616438356 -5.462756849315069 0  -0.4690710616438356 5.462756849315069 0  -6 0.5 0  -1.59556436210848 -0.5 0  -3.058421751829955 -0.5 0  -0.5 2.731982421875 0  0.5 2.691578248170045 0  2.691578248170045 -0.5 0  1.641211254104555 0.5 0  0.5 -1.768017578125 0  0.5 -3.058421751829955 0  0.5 1.699267578125 0  3.018017578125 0.5 0  -0.5 -3.018017578125 0  -2.731982421875 0.5 0  6 -0.5 0  -4.050017120925308 -0.5006099332648871 0  -3.940668202764977 0.5371363767281105 0  3.940668202764977 0.5371363767281105 0  0.4517449476047904 3.958458083832335 0  -0.4517449476047904 -3.958458083832335 0  -1.809331797235023 0.5371363767281105 0  -0.4517449476047904 1.791541916167665 0  -0.0546875 4.59375 0  -5.006445312499999 -0.58984375 0  4.605643203883496 -0.04725424757281554 0  4.90625 0.5546875 0  -0.5546875 4.90625 0  0.04725424757281554 -4.605643203883496 0  -0.586116118210531 -4.995821561900013 0  -4.603710222472543 0.04846236095466061 0  -3.1875 0.65234375 0  0.6163907621110913 3.147502300973589 0  2.5625 0.65234375 0  0.6163907621110913 -2.602497699026411 0  -0.637456713551384 3.189259902731882 0  -0.637456713551384 -2.560740097268118 0  -0.34765625 0.34765625 0  -0.639453125 0.708203125 0  0.089630126953125 0.437286376953125 0  -0.4238281249999999 -1.746875 0  1.746875 -0.4238281249999999 0  -0.4238281249999999 4.003125 0  0.4238281249999999 -4.003125 0  -2.5625 -1 0  3.1875 -1 0  -0.09375 -1.21875 0  1.21875 -0.09375 0  0.4020305405760241 -0.1120343241705621 0  -0.6280191027904287 -0.7577505545748082 0  0.90625 -0.59375 0  -1.205500904741459 0.03633725387965409 0  -0.02129048848213058 1.202028574265107 0  -0.1120343241705621 -0.4020305405760241 0  1 1.3125 0  -2.003587563743074 -0.6442361556699288 0  0.6640077663259718 -1.395873598614549 0  5.6875 -1 0  0.6308138580859101 -5.592151086468728 0  -5.6875 -1 0  0.6568032075915271 5.612942566073222 0  5.616530031741774 0.6612875396772174 0  -5.6875 1 0  1.9375 1 0  -1.3125 -1 0  0.1524679547155687 -3.232579139388032 0  0.1524679547155687 2.517420860611968 0  -3.232579139388032 -0.1524679547155687 0  -1.932320553757026 -0.252759244693845 0  2.517420860611968 -0.1524679547155687 0  -0.04776045819569434 -2.464949198504599 0  -0.2420369079104247 3.187693796852321 0  3.751304711039982 -0.1203080877045035 0  -5.397601941771943 -0.609026059866711 0  1.3125 1 0  1.9375 -1 0  -0.6946315101963667 -2.018229242739021 0  -0.6946315101963667 3.731770757260979 0  1 -3.8125 0  2.014364435550335 0.6166648446293641 0  -1 5.6875 0  -1 -5.6875 0  -2.653476149871182 -0.5942957192996303 0  3.096523850128818 -0.5942957192996303 0  1 1.9375 0  -3.8125 -1 0  0.586975531244212 -0.7975955463807081 0  -0.2946248980953088 -4.743710873809568 0  2.625453376770019 0.2814788818359375 0  -3.124546623229981 0.2814788818359375 0  -0.1204856417894853 5.631800603217465 0  5.253862011026742 0.6581468962876398 0  -0.65234375 2.108701557941197 0  0.65234375 3.641298442058803 0  -0.65234375 -3.641298442058803 0  -0.25 -5.744880569758637 0  -4.4375 -1 0  -0.3166212631734941 -2.713595940002554 0  0.6591479224207506 0.1324305912687024 0  0.8660781906552419 0.6468634238104103 0  -0.9887189158197679 0.6452930723873549 0  0.3149351927204296 -1.460971774996065 0  -0.3572852727880474 -0.009629022788047503 0  2.09375 -0.6866724363772454 0  0.6866724363772454 -3.65625 0  0.6866724363772454 2.09375 0  -3.65625 -0.6866724363772454 0  -3.5371337890625 0.65234375 0  -0.1389584113023952 1.944025352615082 0  -2.151744288472698 0.65234375 0  -0.1389584113023951 -3.805974647384918 0  0.1389584113023951 3.805974647384918 0  -2.578772109813904 0.1857224367977529 0  3.171227890186096 0.1857224367977529 0  3.360315647536819 0.65234375 0  0.1857224367977528 -1.921227890186096 0  0.65234375 -2.110315647536819 0  1.894016528727564 0.2415406141485869 0  -3.738232421875 0 0  0.2516875549238616 3.139069895099618 0  -1.913724396854074 0.2011142179916434 0  0.1669456568161915 0.7843410671359501 0  -2.5625 1 0  -1 -3.1875 0  -1 2.5625 0  0.1736601499778735 4.857955663330752 0  -0.1893536587212888 2.577300639071919 0  -0.1893536587212888 -3.172699360928081 0  3.852271904453858 0.206603749322895 0  -3.8125 1 0  -0.1250095034621793 -5.421707592768541 0  3.8125 -1 0  3.617304217264373 -0.6578427703661498 0  0.2630176195580202 -2.636558318495885 0  0.2674330357770522 1.399517071108871 0  0.631726413079416 1.339254523727593 0  4.700571879807737 0.2813704945051134 0  0.7143844363649634 -3.319538455208831 0  2.430461544791169 -0.7143844363649634 0  0.7143844363649634 2.430461544791169 0  -3.319538455208831 -0.7143844363649634 0  5.687045771608623 -0.6520598572553891 0  -5.687045771608623 0.6520598572553891 0  -1.15625 -0.7048248829733235 0  3.438284572973296 -0.01860298867862281 0  -0.03021088078697859 3.451572359862192 0  2.216682837011589 -0.02159585961918548 0  -2.191580885932936 -0.03126387444658879 0  0.1857410764408683 1.895679405349457 0  3.103473238297955 -0.253270943723272 0  -2.646526761702045 -0.253270943723272 0  -2.333137350671861 -0.6791984914172315 0  -1 5.0625 0  -0.6971235589909319 5.213002544375844 0  0.01618705363819947 2.225929180591695 0  0.01618705363819947 -3.524070819408305 0  0.5690054882403073 0.7951310720450595 0  -0.5764940424412852 -3.329579265180942 0  -0.5764940424412852 2.420420734819058 0  3.8125 1 0  -5.372163860234628 0.04365139563106807 0  5.164108319316826 -0.225040894204947 0  -5.361952437854323 0.6744012088984681 0  -5.0625 1 0  5.286835586913878 -0.6616705837083201 0  -5.692815197359722 0.1186699900166531 0  5.663425996156958 -0.07763197815533956 0  -0.9219866027132193 -0.1143045829323572 0  -1.394333629759332 -0.2233077430199216 0  0.09322478991596644 -0.9616596638655462 0  5.0625 -1 0  -0.14412109375 -1.92169189453125 0  -4.28125 -0.7212148987671345 0  0.2649796277366407 0.1735162902120744 0  -4.907855692236596 0.1868230509619793 0  -1.9375 1 0  1 5.0625 0  0.6915124486819284 -5.272938212550202 0  0.683483242673902 5.284948082526911 0  2.5625 -1 0  -1 -3.8125 0  -1 1.9375 0  5.0625 1 0  -1 -1.9375 0  1 5.6875 0  1 -5.6875 0  -1.9375 -1 0  -1 -2.5625 0  -1 3.1875 0  1 -3.1875 0  1 -2.5625 0  1 2.5625 0  1 3.1875 0  -5.0625 -1 0  -1 -1.3125 0  1.3125 -1 0  -1 1.3125 0  -1 3.8125 0  -1 4.4375 0  -4.4375 1 0  4.4375 -1 0  4.4375 1 0  -1.3125 1 0  1 4.4375 0  1 -4.4375 0  -1 -5.0625 0  -1 -4.4375 0  -3.1875 1 0  2.5625 1 0  1 -1.9375 0  1 -1.3125 0  5.6875 1 0  1 3.8125 0  3.1875 1 0  -3.1875 -1 0  1 -5.0625 0  1.35138038998199 0.6675097549271188 0  -0.465625 0.986328125 0  1.435958105992309 0.2563920171199723 0  1.915914614192913 -0.145782394639918 0  -0.8764440609469509 -0.5746869313612541 0  5.355194559946098 0.01566259380337612 0  -5.69333042954964 -0.5242868300459975 0  1.78125 -0.7320750794491524 0  0.7320750794491525 -3.96875 0  -0.3959075548864684 5.166422468926435 0  -4.770522389068053 -0.2123670725088856 0  -4.714160156249999 -0.69234375 0  -4.273484403713342 -0.278160994327167 0  0.9642590244517505 0.08196089404241463 0  0.3500261717645397 -4.727285205957206 0  0.6740868006020392 -4.765147848348443 0  0.6797550207247084 -1.089747806381148 0  -5.186479934354063 0.3046329157552757 0  -5.263288238215326 -0.3369092276308425 0  -2.433484016245305 0.5442571297016638 0  0.1707808983307866 -3.82363304980935 0  -0.1554012991031027 3.867535742674252 0  4.855508096805579 -0.2283975605264581 0  3.644517238097614 0.5646428152488787 0  0.05699603874439441 -0.6452791208413911 0  -0.3550018917972689 -0.5695324323732931 0  0.6
[...]
<PointData  Vectors="u"> 
<DataArray  type="Float64"  Name="u"  NumberOfComponents="3" format="ascii">0.0000000000000000e+00 0.0000000000000000e+00 0.0000000000000000e+00  0.0000000000000000e+00 0.0000000000000000e+00 0.0000000000000000e+00  0.0000000000000000e+00 0.0000000000000000e+00 0.0000000000000000e+00  0.0000000000000000e+00 0.0000000000000000e+00 0.0000000000000000e+00  0.0000000000000000e+00 0.0000000000000000e+00 0.0000000000000000e+00  0.0000000000000000e+00 0.0000000000000000e+00 0.0000000000000000e+00  0.0000000000000000e+00 0.0000000000000000e+00 0.0000000000000000e+00  0.0000000000000000e+00 0.0000000000000000e+00 0.0000000000000000e+00  0.0000000000000000e+00 0.0000000000000000e+00 0.0000000000000000e+00  0.0000000000000000e+00 0.0000000000000000e+00 0.0000000000000000e+00  0.0000000000000000e+00 0.0000000000000000e+00 0.0000000000000000e+00  0.0000000000000000e+00 0.0000000000000000e+00 0.0000000000000000e+00  0.0000000000000000e+00 0.0000000000000000e+00 0.0000000000000000e+00  0.0000000000000000e+00 0.0000000000000000e+00 0.0000000000000000e+00  0.0000000000000000e+00 0.0000000000000000e+00 0.0000000000000000e+00  0.0000000000000000e+00 0.0000000000000000e+00 0.0000000000000000e+00  0.0000000000000000e+00 0.0000000000000000e+00 0.0000000000000000e+00  0.0000000000000000e+00 0.0000000000000000e+00 0.0000000000000000e+00  0.0000000000000000e+00 0.0000000000000000e+00 0.0000000000000000e+00  0.0000000000000000e+00 0.0000000000000000e+00 0.0000000000000000e+00  0.0000000000000000e+00 0.0000000000000000e+00 0.0000000000000000e+00  0.0000000000000000e+00 0.0000000000000000e+00 0.0000000000000000e+00  0.0000000000000000e+00 0.0000000000000000e+00 0.0000000000000000e+00  0.0000000000000000e+00 0.0000000000000000e+00 0.0000000000000000e+00  0.0000000000000000e+00 0.0000000000000000e+00 0.0000000000000000e+00  0.0000000000000000e+00 0.0000000000000000e+00 0.0000000000000000e+00  0.0000000000000000e+00 0.0000000000000000e+00 0.0000000000000000e+00  0.0000000000000000e+00 0.0000000000000000e+00 0.0000000000000000e+00  0.0000000000000000e+00 0.0000000000000000e+00 0.0000000000000000e+00  0.0000000000000000e+00 0.0000000000000000e+00 0.0000000000000000e+00  0.0000000000000000e+00 0.0000000000000000e+00 0.0000000000000000e+00  0.0000000000000000e+00 0.0000000000000000e+00 0.0000000000000000e+00  0.0000000000000000e+00 0.0000000000000000e+00 0.0000000000000000e+00  0.0000000000000000e+00 0.0000000000000000e+00 0.0000000000000000e+00  0.0000000000000000e+00 0.0000000000000000e+00 0.0000000000000000e+00  0.0000000000000000e+00 0.0000000000000000e+00 0.0000000000000000e+00  -1.6111557637388881e-04 6.0000882818743904e-05 0.0000000000000000e+00  2.9751386518612508e-02 -8.0746490858943226e-06 0.0000000000000000e+00  2.8334178509353877e-02 6.4242268198744652e-05 0.0000000000000000e+00  2.9775451822211141e-02 9.4693562145452500e-07 0.0000000000000000e+00  2.9803347079611291e-02 2.4455825340548016e-05 0.0000000000000000e+00  7.2621890945181175e-06 2.9718943180643317e-02 0.0000000000000000e+00  -2.9685389904877853e-02 3.1453047834452327e-05 0.0000000000000000e+00  2.5722974540336557e-05 2.9708364699919467e-02 0.0000000000000000e+00  -2.8394547487615628e-02 8.9213415356797840e-05 0.0000000000000000e+00  7.7504047559856236e-06 -2.9712693464747923e-02 0.0000000000000000e+00  -2.8388257168123927e-05 -2.8206675618863267e-02 0.0000000000000000e+00  2.8649832091911591e-05 2.8186843479448970e-02 0.0000000000000000e+00  2.8027732639190646e-05 2.9717485619589541e-02 0.0000000000000000e+00  2.7310951843599414e-05 -2.9714801318805991e-02 0.0000000000000000e+00  4.1009463273627481e-05 -2.9757167125596479e-02 0.0000000000000000e+00  -2.9787551049468616e-02 -6.9460850474215538e-06 0.0000000000000000e+00  -2.9747240989358735e-02 -2.8448223879289588e-05 0.0000000000000000e+00  -3.3813984763539061e-05 2.9791644463253931e-02 0.0000000000000000e+00  2.9725481311328895e-02 -3.1070273060442156e-05 0.0000000000000000e+00  -4.5914297067521686e-05 -2.9558340971766232e-02 0.0000000000000000e+00  -2.9649086727984521e-02 -3.4117869723824737e-05 0.0000000000000000e+00  -1.9156034713417282e-02 -4.0506666656574385e-03 0.0000000000000000e+00  3.7840051678919595e-03 -1.8752855770331082e-02 0.0000000000000000e+00  1.8689147733532196e-02 4.0414414614876742e-03 0.0000000000000000e+00  4.0081976508748139e-03 1.8780999816423040e-02 0.0000000000000000e+00  0.0000000000000000e+00 0.0000000000000000e+00 0.0000000000000000e+00  0.0000000000000000e+00 0.0000000000000000e+00 0.0000000000000000e+00  0.0000000000000000e+00 0.0000000000000000e+00 0.0000000000000000e+00  0.0000000000000000e+00 0.0000000000000000e+00 0.0000000000000000e+00  -1.3221799087437173e-02 1.1046891573976434e-02 0.0000000000000000e+00  0.0000000000000000e+00 0.0000000000000000e+00 0.0000000000000000e+00  0.0000000000000000e+00 0.0000000000000000e+00 0.0000000000000000e+00  0.0000000000000000e+00 0.0000000000000000e+00 0.0000000000000000e+00  5.1507373809105150e-05 -2.8362180584550235e-02 0.0000000000000000e+00  0.0000000000000000e+00 0.0000000000000000e+00 0.0000000000000000e+00  -2.9660897473755624e-02 -2.3947286771099922e-06 0.0000000000000000e+00  -2.9576216705985134e-02 4.5640293568880058e-05 0.0000000000000000e+00  -2.9495343897735764e-02 -3.4359806943753384e-06 0.0000000000000000e+00  0.0000000000000000e+00 0.0000000000000000e+00 0.0000000000000000e+00  0.0000000000000000e+00 0.0000000000000000e+00 0.0000000000000000e+00  1.4195168323154408e-05 2.9652496097830092e-02 0.0000000000000000e+00  -8.8007456986227139e-06 2.9668470499359639e-02 0.0000000000000000e+00  0.0000000000000000e+00 0.0000000000000000e+00 0.0000000000000000e+00  0.0000000000000000e+00 0.0000000000000000e+00 0.0000000000000000e+00  1.4526593041775841e-04 2.9411425901485551e-02 0.0000000000000000e+00  -2.3789802428859325e-04 2.9553873500377269e-02 0.0000000000000000e+00  0.0000000000000000e+00 0.0000000000000000e+00 0.0000000000000000e+00  0.0000000000000000e+00 0.0000000000000000e+00 0.0000000000000000e+00  4.3735681969855086e-05 -2.9563253097254646e-02 0.0000000000000000e+00  1.0237764939793860e-05 -2.9683429725902478e-02 0.0000000000000000e+00  0.0000000000000000e+00 0.0000000000000000e+00 0.0000000000000000e+00  -1.3565765090876378e-04 -2.9595532554273621e-02 0.0000000000000000e+00  2.8900250526624736e-04 -2.9513821139437263e-02 0.0000000000000000e+00  0.0000000000000000e+00 0.0000000000000000e+00 0.0000000000000000e+00  0.0000000000000000e+00 0.0000000000000000e+00 0.0000000000000000e+00  0.0000000000000000e+00 0.0000000000000000e+00 0.0000000000000000e+00  0.0000000000000000e+00 0.0000000000000000e+00 0.0000000000000000e+00  0.0000000000000000e+00 0.0000000000000000e+00 0.0000000000000000e+00  0.0000000000000000e+00 0.0000000000000000e+00 0.0000000000000000e+00  -2.9341890548128149e-02 2.2338925061733941e-04 0.0000000000000000e+00  -2.9532960320389327e-02 -2.0406913695258483e-04 0.0000000000000000e+00  0.0000000000000000e+00 0.0000000000000000e+00 0.0000000000000000e+00  0.0000000000000000e+00 0.0000000000000000e+00 0.0000000000000000e+00  0.0000000000000000e+00 0.0000000000000000e+00 0.0000000000000000e+00  0.0000000000000000e+00 0.0000000000000000e+00 0.0000000000000000e+00  0.0000000000000000e+00 0.0000000000000000e+00 0.0000000000000000e+00  0.0000000000000000e+00 0.0000000000000000e+00 0.0000000000000000e+00  2.9369374499898557e-02 2.4937209249127981e-04 0.0000000000000000e+00  2.9455102763703781e-02 -1.7501586607583460e-04 0.0000000000000000e+00  0.0000000000000000e+00 0.0000000000000000e+00 0.0000000000000000e+00  0.0000000000000000e+00 0.0000000000000000e+00 0.0000000000000000e+00  0.0000000000000000e+00 0.0000000000000000e+00 0.0000000000000000e+00  2.9396328387400989e-02 4.9165361670169610e-05 0.0000000000000000e+00  2.9708153711937618e-02 1.4178019108339946e-05 0.0000000000000000e+00  0.0000000000000000e+00 0.0000000000000000e+00 0.0000000000000000e+00  0.0000000000000000e+00 0.0000000000000000e+00 0.0000000000000000e+00  -5.5124831125278762e-03 2.4744298381138161e-02 0.0000000000000000e+00  2.5528046821626335e-02 -5.5495770531830005e-03 0.0000000000000000e+00  -5.1305167418049863e-03 -2.5825998366963698e-02 0.0000000000000000e+00  -2.6102659244209254e-02 4.9168780082353009e-03 0.0000000000000000e+00  3.8178133702878995e-05 -2.8194828056242464e-02 0.0000000000000000e+00  -5.6800999072502464e-06 -2.9666769593311663e-02 0.0000000000000000e+00  -2.9557464919577683e-02 -3.4185259853606940e-05 0.0000000000000000e+00  7.1000241569790356e-08 2.9619294841012007e-02 0.0000000000000000e+00  4.9199695246163593e-05 2.9488820076429077e-02 0.0000000000000000e+00  1.2485791645015128e-02 -7.8190608960297323e-03 0.0000000000000000e+00  2.8403528223418673e-02 4.0625418084095219e-03 0.0000000000000000e+00  3.4887837829920161e-05 2.8332651223922391e-02 0.0000000000000000e+00  -7.3800517464749291e-03 -1.2370748413834285e-02 0.0000000000000000e+00  -2.9413368364572857e-02 1.4937841412975062e-05 0.0000000000000000e+00  -2.9688897501551560e-02 1.0016164555701961e-05 0.0000000000000000e+00  4.7162454751667563e-05 -2.9431688239386695e-02 0.0000000000000000e+00  2.9740275190950984e-02 9.1244111137362675e-06 0.0000000000000000e+00  2.9498137532241724e-02 3.6826883407575718e-05 0.0000000000000000e+00  2.9663370171811313e-02 5.7805895610111240e-06 0.0000000000000000e+00  2.8014144873652742e-02 -1.1480967237854575e-05 0.0000000000000000e+00  3.2643292356095956e-05 2.9436636854036132e-02 0.0000000000000000e+00  -3.4065258080589153e-05 2.9673051816423681e-02 0.0000000000000000e+00  -1.5968327120386345e-05 -2.9571183722613199e-02 0.0000000000000000e+00  4.5687149512269511e-03 2.9314694923019708e-02 0.0000000000000000e+00  -2.8719936066581374e-02 -4.2679134287359095e-03 0.0000000000000000e+00  4.0176817404507003e-03 -2.8443859857263717e-02 0.0000000000000000e+00  2.1504686288373796e-05 2.9656181705818446e-02 0.0000000000000000e+00  -1.3458930698662539e-05 -2.9779026683337623e-02 0.0000000000000000e+00  -2.9716530765509303e-02 -5.3957376117648980e-05 0.0000000000000000e+00  2.8172448906991315e-02 1.4320957877856630e-05 0.0000000000000000e+00  -2.9529741254374353e-02 -1.5022464643148323e-05 0.0000000000000000e+00  2.9576181041533207e-02 -1.6782585914708349e-05 0.0000000000000000e+00  -2.9679511722470187e-02 -8.0650433489035990e-05 0.0000000000000000e+00  7.2746156158534350e-06 -2.9518893777902434e-02 0.0000000000000000e+00  3.9641553951266401e-06 2.9502513512735862e-02 0.0000000000000000e+00  2.8621479203437692e-02 7.9369614542037584e-05 0.0000000000000000e+00  2.9454524904023165e-02 -1.6365026340185371e-03 0.0000000000000000e+00  2.9618284503601950e-02 1.0766242765825380e-06 0.0000000000000000e+00  1.2637492550022468e-05 2.9574657021050350e-02 0.0000000000000000e+00  -6.8435545469230254e-05 2.9465182175635790e-02 0.0000000000000000e+00  -2.9570150419824432e-02 -1.1447106727668550e-05 0.0000000000000000e+00  -2.9498150890986577e-02 1.6569329298998894e-03 0.0000000000000000e+00  -1.0695526092344249e-03 -2.9451697031744162e-02 0.0000000000000000e+00  8.8158608530322956e-06 -2.9473331868399087e-02 0.0000000000000000e+00  -1.1903110299572139e-03 2.9670778512141321e-02 0.0000000000000000e+00  -2.9615689690670910e-02 7.5060619535615087e-05 0.0000000000000000e+00  4.6167859566845531e-05 -2.9536545463283395e-02 0.0000000000000000e+00  2.9486339730692607e-02 3.6999896390992273e-06 0.0000000000000000e+00  -2.8419518733046708e-02 -1.1492530317403892e-05 0.0000000000000000e+00  2.9683247365502943e-02 -3.6914237581539511e-06 0.0000000000000000e+00  2.8290637655057013e-02 -1.0575884679245567e-04 0.0000000000000000e+00  -2.8311282744945918e-02 -2.2171844260457759e-04 0.0000000000000000e+00  3.0848789566603620e-05 2.9519669863346237e-02 0.0000000000000000e+00  4.7942233896168549e-05 -2.9491926887752023e-02 0.0000000000000000e+00  2.8239959523059334e-02 8.6276306759186245e-04 0.0000000000000000e+00  9.4554789775053074e-04 2.9220165534738836e-02 0.0000000000000000e+00  3.6893731321686566e-05 2.9726537901441460e-02 0.0000000000000000e+00  2.8530626929010646e-02 1.0082434260933219e-05 0.0000000000000000e+00  -2.9770454102362065e-02 -7.1424115936466932e-06 0.0000000000000000e+00  -2.5930309891231958e-02 5.6475808507514970e-05 0.0000000000000000e+00  3.2875378931128344e-05 2.5105253032894691e-02 0.0000000000000000e+00  -5.6260682000599996e-06 -2.9781714294476454e-02 0.0000000000000000e+00  -9.9058919388685977e-05 -2.5567465895912692e-02 0.0000000000000000e+00  2.9774343876002245e-02 -1.6957338032487652e-05 0.0000000000000000e+00  2.5310246557475428e-02 4.8997120813271163e-05 0.0000000000000000e+00  4.6182321724418390e-06 2.6071227358031815e-02 0.0000000000000000e+00  -2.8941669582791908e-02 1.8039256497016871e-04 0.0000000000000000e+00  -6.2055464193148724e-05 -2.6043215196243367e-02 0.0000000000000000e+00  1.0894795054487740e-04 2.6141028713967677e-02 0.0000000000000000e+00  -2.2016891442487740e-05 -2.5915926730670891e-02 0.0000000000000000e+00  8.1799133216696341e-03 7.9658180171538560e-03 0.0000000000000000e+00  1.5461606975112513e-02 1.7972832977427543e-02 0.0000000000000000e+00  -2.0548503133048144e-03 1.0266449397787316e-02 0.0000000000000000e+00  1.1225103379269956e-03 -2.9235341173616383e-02 0.0000000000000000e+00  -2.9172847995714304e-02 -1.0030155674873131e-03 0.0000000000000000e+00  -1.5673236394465306e-05 2.9464069490688374e-02 0.0000000000000000e+00  7.4295346123669562e-06 -2.9519731987389778e-02 0.0000000000000000e+00  0.0000000000000000e+00 0.0000000000000000e+00 0.0000000000000000e+00  0.0000000000000000e+00 0.0000000000000000e+00 0.0000000000000000e+00  1.3418547296446207e-03 -2.5219803288295595e-02 0.0000000000000000e+00  -2.5323858492668903e-02 -8.2596845178393443e-04 0.0000000000000000e+00  -9.5763314832638859e-03 -2.4643041511406560e-03 0.0000000000000000e+00  1.5850147991479095e-02 -2.0465600010403939e-02 0.0000000000000000e+00  -2.5351432293398028e-02 -1.2401184400967463e-02 0.0000000000000000e+00  2.5270366819590613e-02 7.2171631465219369e-04 0.0000000000000000e+00  1.8411961103566155e-04 2.4958977888743804e-02 0.0000000000000000e+00  2.5342431589013602e-03 -9.4839752133900803e-03 0.0000000000000000e+00  0.0000000000000000e+00 0.0000000000000000e+00 0.0000000000000000e+00  2.6383750382068576e-02 -4.3030932290057951e-04 0.0000000000000000e+00  -3.0366221245974930e-03 -2.9468988896413872e-02 0.0000000000000000e+00  0.0000000000000000e+00 0.0000000000000000e+00 0.0000000000000000e+00  1.1142119399166620e-04 -2.6231741304122411e-02 0.0000000000000000e+00  0.0000000000000000e+00 0.0000000000000000e+00 0.0000000000000000e+00  1.4496040489737620e-04 2.6754253080682779e-02 0.0000000000000000e+00  -2.6852849892232283e-02 -2.2224965543013046e-04 0.0000000000000000e+00  0.0000000000000000e+00 0.0000000000000000e+00 0.0000000000000000e+00  0.0000000000000000e+00 0.0000000000000000e+00 0.0000000000000000e+00  0.0000000000000000e+00 0.0000000000000000e+00 0.0000000000000000e+00  1.7686554806204735e-05 -2.9712086023979355e-02 0.0000000000000000e+00  -5.1298839124758457e-05 2.9653372457093961e-02 0.0000000000000000e+00  2.9751548520627370e-02 7.4518764596766709e-06 0.0000000000000000e+00  2.9299598029434312e-02 -4.5148621740552584e-04 0.0000000000000000e+00  -2.9635986556891224e-02 -2.6791375738668753e-05 0.0000000000000000e+00  2.1256954167133814e-05 -2.9662083089530004e-02 0.0000000000000000e+00  3.5234257749941889e-05 2.9611967146343926e-02 0.0000000000000000e+00  -2.9779270724809501e-02 5.5383205551619782e-06 0.0000000000000000e+00  2.5659753836850104e-02 9.3971822648774288e-07 0.0000000000000000e+00  0.0000000000000000e+00 0.0000000000000000e+00 0.0000000000000000e+00  0.0000000000000000e+00 0.0000000000000000e+00 0.0000000000000000e+00  5.9663916666994070e-04 -2.6859614205262564e-02 0.0000000000000000e+00  -1.4158311139084924e-04 2.6854320797394086e-02 0.0000000000000000e+00  0.0000000000000000e+00 0.0000000000000000e+00 0.0000000000000000e+00  -2.8679435756850929e-02 3.8355852711103634e-04 0.0000000000000000e+00  0.0000000000000000e+00 0.0000000000000000e+00 0.0000000000000000e+00  0.0000000000000000e+00 0.0000000000000000e+00 0.0000000000000000e+00  2.8755455762174451e-02 8.6543645172541939e-05 0.0000000000000000e+00  -2.8542338818845062e-02 -3.5757608309961814e-05 0.0000000000000000e+00  0.0000000000000000e+00 0.0000000000000000e+00 0.0000000000000000e+00  0.0000000000000000e+00 0.0000000000000000e+00 0.0000000000000000e+00  -1.3841952226540883e-02 -2.1632630030700036e-02 0.0000000000000000e+00  -2.8196596595321802e-05 -2.9482902116040936e-02 0.0000000000000000e+00  -2.9514954993749856e-02 8.9672199834522063e-05 0.0000000000000000e+00  2.9639168991467856e-02 8.0731331242598927e-07 0.0000000000000000e+00  2.5055079035942724e-05 2.9747326152565850e-02 0.0000000000000000e+00  -2.6846089377581484e-02 -1.3414063735374832e-04 0.0000000000000000e+00  1.6808541271616271e-04 2.6551455718570982e-02 0.0000000000000000e+00  -2.4737799464020674e-05 2.6333850252864412e-02 0.0000000000000000e+00  8.6267720785371892e-05 -2.6395868158664456e-02 0.0000000000000000e+00  3.2403971196707990e-05 -2.9528014776113012e-02 0.0000000000000000e+00  0.0000000000000000e+00 0.0000000000000000e+00 0.0000000000000000e+00  4.3700084717411576e-06 -2.9475906710846767e-02 0.0000000000000000e+00  -1.5284950078426705e-02 3.0931143494840690e-03 0.0000000000000000e+00  -2.3036816708478659e-02 1.5495631044144930e-02 0.0000000000000000e+00  2.6691851689247700e-02 1.2476384631988059e-02 0.0000000000000000e+00  -2.1209398080286558e-03 -2.7944917710939852e-02 0.0000000000000000e+00  8.2702662548399895e-03 1.0089418637469374e-04 0.0000000000000000e+00  -2.7086830805613409e-02 -2.6923496462985297e-04 0.0000000000000000e+00  9.8030119437322589e-06 -2.7060145630609878e-02 0.0000000000000000e+00  -2.8396228177339717e-04 2.7066283272972665e-02 0.0000000000000000e+00  2.6794026916549005e-02 3.8683243004404267e-05 0.0000000000000000e+00  2.6829579606164795e-02 1.2224059469852122e-05 0.0000000000000000e+00  2.4141514728091392e-04 2.9297728512688626e-02 0.0000000000000000e+00  2.6951331328559414e-02 4.7454261690251263e-04 0.0000000000000000e+00  3.9302318400210492e-05 -2.9729432249394328e-02 0.0000000000000000e+00  2.6398861997469514e-05 2.9739327978099195e-02 0.0000000000000000e+00  2.9597554749692816e-02 3.1002911818420633e-05 0.0000000000000000e+00  -2.9717384954940137e-02 5.6011342443288850e-05 0.0000000000000000e+00  -2.6206793897085866e-02 2.1939082859245669e-04 0.0000000000000000e+00  -2.3338396064854914e-04 -2.9256172140919686e-02 0.0000000000000000e+00  -2.1415738370612910e-04 -2.5993619768334211e-02 0.0000000000000000e+00  -2.9250198981851720e-02 5.7270349178543576e-04 0.0000000000000000e+00  2.9762671827860965e-02 2.3161811335406960e-05 0.0000000000000000e+00  9.6367665237543722e-06 2.9682879007616486e-02 0.0000000000000000e+00  2.9258589767501484e-02 4.7457906437222384e-04 0.0000000000000000e+00  -3.4656530498168598e-03 1.8292410266990595e-02 0.0000000000000000e+00  0.0000000000000000e+00 0.0000000000000000e+00 0.0000000000000000e+00  0.0000000000000000e+00 0.0000000000000000e+00 0.0000000000000000e+00  0.0000000000000000e+00 0.0000000000000000e+00 0.0000000000000000e+00  -9.9098193546464505e-06 2.9758484318159657e-02 0.0000000000000000e+00  2.6222110408925957e-05 2.9619626026682031e-02 0.0000000000000000e+00  3.3765024562486647e-05 -2.9659848813095684e-02 0.0000000000000000e+00  -2.9550841677407874e-02 -7.4119790760457841e-06 0.0000000000000000e+00  0.0000000000000000e+00 0.0000000000000000e+00 0.0000000000000000e+00  -9.4340707326956573e-06 -2.9723494434979351e-02 0.0000000000000000e+00  0.0000000000000000e+00 0.0000000000000000e+00 0.0000000000000000e+00  -2.6080432086473058e-02 -3.0390675474422963e-05 0.0000000000000000e+00  -5.1761166074413900e-05 -2.9643530292491976e-02 0.0000000000000000e+00  -2.3481373888018641e-03 2.7305087532988520e-02 0.0000000000000000e+00  -3.8734823988344881e-03 2.8914924681701391e-02 0.0000000000000000e+00  -2.9749458261153189e-02 4.4282163152741619e-06 0.00