<?xml version="1.0"?>
<VTKFile type="UnstructuredGrid"  version="0.1"  >
<UnstructuredGrid>
<Piece  NumberOfPoints="778" NumberOfCells="1401">
<Points>
<DataArray  type="Float64"  NumberOfComponents="3"  format="ascii">1 -1 0  6 -1 0  6 1 0  1 1 0  1 6 0  -1 6 0  -1 1 0  -6 1 0  -6 -1 0  -1 -1 0  -1 -6 0  1 -6 0  1 3.5 0  -1 3.5 0  -1 -3.5 0  1 -3.5 0  3.5 -1 0  3.5 1 0  -3.5 -1 0  -3.5 1 0  -1 -2.25 0  1 -2.25 0  2.25 -1 0  2.25 1 0  -1 2.25 0  1 2.25 0  -1 4.75 0  1 4.75 0  -4.75 -1 0  -4.75 1 0  -2.25 1 0  -2.25 -1 0  1 -4.75 0  -1 -4.75 0  4.75 1 0  4.75 -1 0  0 0 0  -2.875 0 0  -1.625 0 0  -4.125 0 0  -6 0 0  0 2.875 0  2.875 0 0  0 6 0  1.625 0 0  0 -2.875 0  0 -1.625 0  0 1.625 0  0 4.125 0  0 -6 0  0 -4.125 0  4.125 0 0  6 0 0  -0.109375 5.0625 0  -5.0625 -0.109375 0  -0.109375 -5.0625 0  5.0625 0.109375 0  0.8125 -0.1875 0  -0.1875 -0.8125 0  -0.8125 0.1875 0  -0.1875 0.8125 0  1 5.375 0  -5.375 1 0  1 -5.375 0  5.375 -1 0  0.53515625 0.46484375 0  -5.375 -1 0  -1 5.375 0  -1 -5.375 0  -0.5 -6 0  5.375 1 0  6 0.5 0  3.5 0.3046875 0  3.43125 -0.34765625 0  2.875 -1 0  4.125 1 0  0.3046875 3.5 0  -0.34765625 3.56875 0  -1 4.125 0  1 4.125 0  -0.3046875 2.25 0  0.34765625 2.18125 0  1 1.625 0  -1 -1.625 0  -0.3046875 -3.5 0  0.34765625 -3.56875 0  1 -4.125 0  0.3046875 -2.25 0  -0.34765625 -2.18125 0  -1 -4.125 0  -1 -2.875 0  1 -2.875 0  1 -1.625 0  1.625 -1 0  1.625 1 0  2.25 0.3046875 0  2.18125 -0.34765625 0  4.125 -1 0  2.875 1 0  1 2.875 0  -1 1.625 0  -1 2.875 0  -4.125 -1 0  -2.25 0.3046875 0  -2.31875 -0.34765625 0  -2.875 -1 0  -1.625 1 0  -4.125 1 0  -3.5 0.3046875 0  -3.56875 -0.34765625 0  -1.625 -1 0  -2.875 1 0  0.380626321794301 1.06853329530276 0  -1.110819327731092 -0.3739495798319328 0  0.3739495798319328 -1.110819327731092 0  1.151210293219304 0.3991939332620648 0  -0.5 -4.4375 0  0.5 -4.4375 0  5.481553398058253 -0.3712833737864077 0  0.5 4.4375 0  0.5 6 0  -0.522503783594538 -0.3265648647465863 0  -1.3125 0.5 0  -0.5 6 0  0.3265648647465863 -0.522503783594538 0  4.4375 0.5 0  4.4375 -0.5 0  0.5 -6 0  -6 -0.5 0  -5.481553398058253 0.3712833737864077 0  -4.55 -0.4296875 0  -4.4375 0.5 0  -0.5 4.4375 0  0.4792930825242718 5.026881067961165 0  0.4792930825242718 -5.026881067961165 0  -0.5 1.3125 0  1.3125 -0.5 0  -0.5 -1.3125 0  0.25 5.518539952962044 0  0.2125133872612723 -5.500076563152851 0  4.969341874373811 -0.5152550785163683 0  -4.969341874373811 0.5152550785163683 0  3.927189744345589 -0.4712876597840069 0  -5.554036458333333 -0.25 0  5.554036458333333 0.25 0  -0.4690710616438356 -5.462756849315069 0  -0.4690710616438356 5.462756849315069 0  -6 0.5 0  -1.59556436210848 -0.5 0  -3.058421751829955 -0.5 0  -0.5 2.731982421875 0  0.5 2.691578248170045 0  2.691578248170045 -0.5 0  1.641211254104555 0.5 0  0.5 -1.768017578125 0  0.5 -3.058421751829955 0  0.5 1.699267578125 0  3.018017578125 0.5 0  -0.5 -3.018017578125 0  -2.731982421875 0.5 0  6 -0.5 0  -4.050017120925308 -0.5006099332648871 0  -3.940668202764977 0.5371363767281105 0  3.940668202764977 0.5371363767281105 0  0.4517449476047904 3.958458083832335 0  -0.4517449476047904 -3.958458083832335 0  -1.809331797235023 0.5371363767281105 0  -0.4517449476047904 1.791541916167665 0  -0.0546875 4.59375 0  -5.006445312499999 -0.58984375 0  4.605643203883496 -0.04725424757281554 0  4.90625 0.5546875 0  -0.5546875 4.90625 0  0.04725424757281554 -4.605643203883496 0  -0.586116118210531 -4.995821561900013 0  -4.603710222472543 0.04846236095466061 0  -3.1875 0.65234375 0  0.6163907621110913 3.147502300973589 0  2.5625 0.65234375 0  0.6163907621110913 -2.602497699026411 0  -0.637456713551384 3.189259902731882 0  -0.637456713551384 -2.560740097268118 0  -0.34765625 0.34765625 0  -0.639453125 0.708203125 0  0.089630126953125 0.437286376953125 0  -0.4238281249999999 -1.746875 0  1.746875 -0.4238281249999999 0  -0.4238281249999999 4.003125 0  0.4238281249999999 -4.003125 0  -2.5625 -1 0  3.1875 -1 0  -0.09375 -1.21875 0  1.21875 -0.09375 0  0.4020305405760241 -0.1120343241705621 0  -0.6280191027904287 -0.7577505545748082 0  0.90625 -0.59375 0  -1.205500904741459 0.03633725387965409 0  -0.02129048848213058 1.202028574265107 0  -0.1120343241705621 -0.4020305405760241 0  1 1.3125 0  -2.003587563743074 -0.6442361556699288 0  0.6640077663259718 -1.395873598614549 0  5.6875 -1 0  0.6308138580859101 -5.592151086468728 0  -5.6875 -1 0  0.6568032075915271 5.612942566073222 0  5.616530031741774 0.6612875396772174 0  -5.6875 1 0  1.9375 1 0  -1.3125 -1 0  0.1524679547155687 -3.232579139388032 0  0.1524679547155687 2.517420860611968 0  -3.232579139388032 -0.1524679547155687 0  -1.932320553757026 -0.252759244693845 0  2.517420860611968 -0.1524679547155687 0  -0.04776045819569434 -2.464949198504599 0  -0.2420369079104247 3.187693796852321 0  3.751304711039982 -0.1203080877045035 0  -5.397601941771943 -0.609026059866711 0  1.3125 1 0  1.9375 -1 0  -0.6946315101963667 -2.018229242739021 0  -0.6946315101963667 3.731770757260979 0  1 -3.8125 0  2.014364435550335 0.6166648446293641 0  -1 5.6875 0  -1 -5.6875 0  -2.653476149871182 -0.5942957192996303 0  3.096523850128818 -0.5942957192996303 0  1 1.9375 0  -3.8125 -1 0  0.586975531244212 -0.7975955463807081 0  -0.2946248980953088 -4.743710873809568 0  2.625453376770019 0.2814788818359375 0  -3.124546623229981 0.2814788818359375 0  -0.1204856417894853 5.631800603217465 0  5.253862011026742 0.6581468962876398 0  -0.65234375 2.108701557941197 0  0.65234375 3.641298442058803 0  -0.65234375 -3.641298442058803 0  -0.25 -5.744880569758637 0  -4.4375 -1 0  -0.3166212631734941 -2.713595940002554 0  0.6591479224207506 0.1324305912687024 0  0.8660781906552419 0.6468634238104103 0  -0.9887189158197679 0.6452930723873549 0  0.3149351927204296 -1.460971774996065 0  -0.3572852727880474 -0.009629022788047503 0  2.09375 -0.6866724363772454 0  0.6866724363772454 -3.65625 0  0.6866724363772454 2.09375 0  -3.65625 -0.6866724363772454 0  -3.5371337890625 0.65234375 0  -0.1389584113023952 1.944025352615082 0  -2.151744288472698 0.65234375 0  -0.1389584113023951 -3.805974647384918 0  0.1389584113023951 3.805974647384918 0  -2.578772109813904 0.1857224367977529 0  3.171227890186096 0.1857224367977529 0  3.360315647536819 0.65234375 0  0.1857224367977528 -1.921227890186096 0  0.65234375 -2.110315647536819 0  1.894016528727564 0.2415406141485869 0  -3.738232421875 0 0  0.2516875549238616 3.139069895099618 0  -1.913724396854074 0.2011142179916434 0  0.1669456568161915 0.7843410671359501 0  -2.5625 1 0  -1 -3.1875 0  -1 2.5625 0  0.1736601499778735 4.857955663330752 0  -0.1893536587212888 2.577300639071919 0  -0.1893536587212888 -3.172699360928081 0  3.852271904453858 0.206603749322895 0  -3.8125 1 0  -0.1250095034621793 -5.421707592768541 0  3.8125 -1 0  3.617304217264373 -0.6578427703661498 0  0.2630176195580202 -2.636558318495885 0  0.2674330357770522 1.399517071108871 0  0.631726413079416 1.339254523727593 0  4.700571879807737 0.2813704945051134 0  0.7143844363649634 -3.319538455208831 0  2.430461544791169 -0.7143844363649634 0  0.7143844363649634 2.430461544791169 0  -3.319538455208831 -0.7143844363649634 0  5.687045771608623 -0.6520598572553891 0  -5.687045771608623 0.6520598572553891 0  -1.15625 -0.7048248829733235 0  3.438284572973296 -0.01860298867862281 0  -0.03021088078697859 3.451572359862192 0  2.216682837011589 -0.02159585961918548 0  -2.191580885932936 -0.03126387444658879 0  0.1857410764408683 1.895679405349457 0  3.103473238297955 -0.253270943723272 0  -2.646526761702045 -0.253270943723272 0  -2.333137350671861 -0.6791984914172315 0  -1 5.0625 0  -0.6971235589909319 5.213002544375844 0  0.01618705363819947 2.225929180591695 0  0.01618705363819947 -3.524070819408305 0  0.5690054882403073 0.7951310720450595 0  -0.5764940424412852 -3.329579265180942 0  -0.5764940424412852 2.420420734819058 0  3.8125 1 0  -5.372163860234628 0.04365139563106807 0  5.164108319316826 -0.225040894204947 0  -5.361952437854323 0.6744012088984681 0  -5.0625 1 0  5.286835586913878 -0.6616705837083201 0  -5.692815197359722 0.1186699900166531 0  5.663425996156958 -0.07763197815533956 0  -0.9219866027132193 -0.1143045829323572 0  -1.394333629759332 -0.2233077430199216 0  0.09322478991596644 -0.9616596638655462 0  5.0625 -1 0  -0.14412109375 -1.92169189453125 0  -4.28125 -0.7212148987671345 0  0.2649796277366407 0.1735162902120744 0  -4.907855692236596 0.1868230509619793 0  -1.9375 1 0  1 5.0625 0  0.6915124486819284 -5.272938212550202 0  0.683483242673902 5.284948082526911 0  2.5625 -1 0  -1 -3.8125 0  -1 1.9375 0  5.0625 1 0  -1 -1.9375 0  1 5.6875 0  1 -5.6875 0  -1.9375 -1 0  -1 -2.5625 0  -1 3.1875 0  1 -3.1875 0  1 -2.5625 0  1 2.5625 0  1 3.1875 0  -5.0625 -1 0  -1 -1.3125 0  1.3125 -1 0  -1 1.3125 0  -1 3.8125 0  -1 4.4375 0  -4.4375 1 0  4.4375 -1 0  4.4375 1 0  -1.3125 1 0  1 4.4375 0  1 -4.4375 0  -1 -5.0625 0  -1 -4.4375 0  -3.1875 1 0  2.5625 1 0  1 -1.9375 0  1 -1.3125 0  5.6875 1 0  1 3.8125 0  3.1875 1 0  -3.1875 -1 0  1 -5.0625 0  1.35138038998199 0.6675097549271188 0  -0.465625 0.986328125 0  1.435958105992309 0.2563920171199723 0  1.915914614192913 -0.145782394639918 0  -0.8764440609469509 -0.5746869313612541 0  5.355194559946098 0.01566259380337612 0  -5.69333042954964 -0.5242868300459975 0  1.78125 -0.7320750794491524 0  0.7320750794491525 -3.96875 0  -0.3959075548864684 5.166422468926435 0  -4.770522389068053 -0.2123670725088856 0  -4.714160156249999 -0.69234375 0  -4.273484403713342 -0.278160994327167 0  0.9642590244517505 0.08196089404241463 0  0.3500261717645397 -4.727285205957206 0  0.6740868006020392 -4.765147848348443 0  0.6797550207247084 -1.089747806381148 0  -5.186479934354063 0.3046329157552757 0  -5.263288238215326 -0.3369092276308425 0  -2.433484016245305 0.5442571297016638 0  0.1707808983307866 -3.82363304980935 0  -0.1554012991031027 3.867535742674252 0  4.855508096805579 -0.2283975605264581 0  3.644517238097614 0.5646428152488787 0  0.05699603874439441 -0.6452791208413911 0  -0.3550018917972689 -0.5695324323732931 0  0.6
[...]
<PointData  Vectors="u"> 
<DataArray  type="Float64"  Name="u"  NumberOfComponents="3" format="ascii">0.0000000000000000e+00 0.0000000000000000e+00 0.0000000000000000e+00  0.0000000000000000e+00 0.0000000000000000e+00 0.0000000000000000e+00  0.0000000000000000e+00 0.0000000000000000e+00 0.0000000000000000e+00  0.0000000000000000e+00 0.0000000000000000e+00 0.0000000000000000e+00  0.0000000000000000e+00 0.0000000000000000e+00 0.0000000000000000e+00  0.0000000000000000e+00 0.0000000000000000e+00 0.0000000000000000e+00  0.0000000000000000e+00 0.0000000000000000e+00 0.0000000000000000e+00  0.0000000000000000e+00 0.0000000000000000e+00 0.0000000000000000e+00  0.0000000000000000e+00 0.0000000000000000e+00 0.0000000000000000e+00  0.0000000000000000e+00 0.0000000000000000e+00 0.0000000000000000e+00  0.0000000000000000e+00 0.0000000000000000e+00 0.0000000000000000e+00  0.0000000000000000e+00 0.0000000000000000e+00 0.0000000000000000e+00  0.0000000000000000e+00 0.0000000000000000e+00 0.0000000000000000e+00  0.0000000000000000e+00 0.0000000000000000e+00 0.0000000000000000e+00  0.0000000000000000e+00 0.0000000000000000e+00 0.0000000000000000e+00  0.0000000000000000e+00 0.0000000000000000e+00 0.0000000000000000e+00  0.0000000000000000e+00 0.0000000000000000e+00 0.0000000000000000e+00  0.0000000000000000e+00 0.0000000000000000e+00 0.0000000000000000e+00  0.0000000000000000e+00 0.0000000000000000e+00 0.0000000000000000e+00  0.0000000000000000e+00 0.0000000000000000e+00 0.0000000000000000e+00  0.0000000000000000e+00 0.0000000000000000e+00 0.0000000000000000e+00  0.0000000000000000e+00 0.0000000000000000e+00 0.0000000000000000e+00  0.0000000000000000e+00 0.0000000000000000e+00 0.0000000000000000e+00  0.0000000000000000e+00 0.0000000000000000e+00 0.0000000000000000e+00  0.0000000000000000e+00 0.0000000000000000e+00 0.0000000000000000e+00  0.0000000000000000e+00 0.0000000000000000e+00 0.0000000000000000e+00  0.0000000000000000e+00 0.0000000000000000e+00 0.0000000000000000e+00  0.0000000000000000e+00 0.0000000000000000e+00 0.0000000000000000e+00  0.0000000000000000e+00 0.0000000000000000e+00 0.0000000000000000e+00  0.0000000000000000e+00 0.0000000000000000e+00 0.0000000000000000e+00  0.0000000000000000e+00 0.0000000000000000e+00 0.0000000000000000e+00  0.0000000000000000e+00 0.0000000000000000e+00 0.0000000000000000e+00  0.0000000000000000e+00 0.0000000000000000e+00 0.0000000000000000e+00  0.0000000000000000e+00 0.0000000000000000e+00 0.0000000000000000e+00  0.0000000000000000e+00 0.0000000000000000e+00 0.0000000000000000e+00  0.0000000000000000e+00 0.0000000000000000e+00 0.0000000000000000e+00  -2.0281852144046254e-04 1.0044921019479312e-04 0.0000000000000000e+00  5.1578872467683341e-02 -1.1462947414355101e-05 0.0000000000000000e+00  4.9268984312597297e-02 6.3864236255072076e-05 0.0000000000000000e+00  5.1639464704718106e-02 3.7470591991284364e-06 0.0000000000000000e+00  5.1692758336232256e-02 3.6304947407931034e-05 0.0000000000000000e+00  1.2580218231619097e-05 5.1565465286530422e-02 0.0000000000000000e+00  -5.1489751233208966e-02 4.4211911259859855e-05 0.0000000000000000e+00  3.8989953933496345e-05 5.1503031694728287e-02 0.0000000000000000e+00  -4.9367337593002450e-02 1.1891910060469567e-04 0.0000000000000000e+00  7.1129775587947088e-06 -5.1532198738410168e-02 0.0000000000000000e+00  -1.5344138548402586e-05 -4.9187196411566575e-02 0.0000000000000000e+00  4.1669959499690987e-05 4.9128199104188315e-02 0.0000000000000000e+00  3.6598289906411002e-05 5.1525737356725082e-02 0.0000000000000000e+00  4.0625085862005295e-05 -5.1520596268403107e-02 0.0000000000000000e+00  6.7032810992517246e-05 -5.1590269642637049e-02 0.0000000000000000e+00  -5.1649406257214099e-02 -1.8065522028981261e-05 0.0000000000000000e+00  -5.1613864892035552e-02 -4.6907682360855262e-05 0.0000000000000000e+00  -6.3723839334318302e-05 5.1649921768863148e-02 0.0000000000000000e+00  5.1589289419557850e-02 -6.7115223983182625e-05 0.0000000000000000e+00  -7.9967962403434644e-05 -5.1392505653115067e-02 0.0000000000000000e+00  -5.1508870403517960e-02 -6.2694555073122482e-05 0.0000000000000000e+00  -3.3409485682815168e-02 -6.9274141240016265e-03 0.0000000000000000e+00  6.7047296202874173e-03 -3.2925415696714262e-02 0.0000000000000000e+00  3.2821448333768100e-02 6.8402053669351683e-03 0.0000000000000000e+00  6.9291912019642512e-03 3.2979459229585020e-02 0.0000000000000000e+00  0.0000000000000000e+00 0.0000000000000000e+00 0.0000000000000000e+00  0.0000000000000000e+00 0.0000000000000000e+00 0.0000000000000000e+00  0.0000000000000000e+00 0.0000000000000000e+00 0.0000000000000000e+00  0.0000000000000000e+00 0.0000000000000000e+00 0.0000000000000000e+00  -2.3029590496007057e-02 1.9419326908607266e-02 0.0000000000000000e+00  0.0000000000000000e+00 0.0000000000000000e+00 0.0000000000000000e+00  0.0000000000000000e+00 0.0000000000000000e+00 0.0000000000000000e+00  0.0000000000000000e+00 0.0000000000000000e+00 0.0000000000000000e+00  6.0277952733971318e-05 -4.9173662429293809e-02 0.0000000000000000e+00  0.0000000000000000e+00 0.0000000000000000e+00 0.0000000000000000e+00  -5.1389467754882727e-02 -6.8508450362979856e-07 0.0000000000000000e+00  -5.1673993678550231e-02 6.1155637792371806e-05 0.0000000000000000e+00  -5.1553571458192941e-02 1.6898672706900997e-05 0.0000000000000000e+00  0.0000000000000000e+00 0.0000000000000000e+00 0.0000000000000000e+00  0.0000000000000000e+00 0.0000000000000000e+00 0.0000000000000000e+00  2.9424978556623626e-05 5.1522789415770730e-02 0.0000000000000000e+00  -4.5039241438025063e-06 5.1624306059703744e-02 0.0000000000000000e+00  0.0000000000000000e+00 0.0000000000000000e+00 0.0000000000000000e+00  0.0000000000000000e+00 0.0000000000000000e+00 0.0000000000000000e+00  2.4707209636613288e-04 5.1290904228261783e-02 0.0000000000000000e+00  -3.7047870098532180e-04 5.1369843964486357e-02 0.0000000000000000e+00  0.0000000000000000e+00 0.0000000000000000e+00 0.0000000000000000e+00  0.0000000000000000e+00 0.0000000000000000e+00 0.0000000000000000e+00  4.4329878967155979e-05 -5.1505071941601158e-02 0.0000000000000000e+00  1.6582542877696754e-05 -5.1562668648290455e-02 0.0000000000000000e+00  0.0000000000000000e+00 0.0000000000000000e+00 0.0000000000000000e+00  -2.2169491789445647e-04 -5.1342744213944205e-02 0.0000000000000000e+00  4.5774158179275889e-04 -5.1409868630882288e-02 0.0000000000000000e+00  0.0000000000000000e+00 0.0000000000000000e+00 0.0000000000000000e+00  0.0000000000000000e+00 0.0000000000000000e+00 0.0000000000000000e+00  0.0000000000000000e+00 0.0000000000000000e+00 0.0000000000000000e+00  0.0000000000000000e+00 0.0000000000000000e+00 0.0000000000000000e+00  0.0000000000000000e+00 0.0000000000000000e+00 0.0000000000000000e+00  0.0000000000000000e+00 0.0000000000000000e+00 0.0000000000000000e+00  -5.1277037049811292e-02 3.3246989943495398e-04 0.0000000000000000e+00  -5.1327772939983453e-02 -3.3371265211515355e-04 0.0000000000000000e+00  0.0000000000000000e+00 0.0000000000000000e+00 0.0000000000000000e+00  0.0000000000000000e+00 0.0000000000000000e+00 0.0000000000000000e+00  0.0000000000000000e+00 0.0000000000000000e+00 0.0000000000000000e+00  0.0000000000000000e+00 0.0000000000000000e+00 0.0000000000000000e+00  0.0000000000000000e+00 0.0000000000000000e+00 0.0000000000000000e+00  0.0000000000000000e+00 0.0000000000000000e+00 0.0000000000000000e+00  5.1410096791598477e-02 3.4907338785746797e-04 0.0000000000000000e+00  5.1496468627588041e-02 -3.0831043939289848e-04 0.0000000000000000e+00  0.0000000000000000e+00 0.0000000000000000e+00 0.0000000000000000e+00  0.0000000000000000e+00 0.0000000000000000e+00 0.0000000000000000e+00  0.0000000000000000e+00 0.0000000000000000e+00 0.0000000000000000e+00  5.1385874533347330e-02 8.7617100527938917e-05 0.0000000000000000e+00  5.1600251743359311e-02 2.4012007440995150e-05 0.0000000000000000e+00  0.0000000000000000e+00 0.0000000000000000e+00 0.0000000000000000e+00  0.0000000000000000e+00 0.0000000000000000e+00 0.0000000000000000e+00  -9.5843782780768785e-03 4.3508964271837078e-02 0.0000000000000000e+00  4.4773099607364350e-02 -9.3907724037793523e-03 0.0000000000000000e+00  -8.9334142095420892e-03 -4.5204396765555169e-02 0.0000000000000000e+00  -4.5749556697997358e-02 8.4343510626481138e-03 0.0000000000000000e+00  4.0573812553120328e-05 -4.9076102105050021e-02 0.0000000000000000e+00  -1.6666485407936086e-06 -5.1599559235033884e-02 0.0000000000000000e+00  -5.1614046815460182e-02 -7.0025823409460361e-05 0.0000000000000000e+00  3.4006471987134893e-06 5.1505947308568237e-02 0.0000000000000000e+00  4.6120605018959119e-05 5.1468813732413757e-02 0.0000000000000000e+00  2.1817429848245095e-02 -1.3632234429666074e-02 0.0000000000000000e+00  4.9763313284232669e-02 6.9847761201233408e-03 0.0000000000000000e+00  2.6007417743580393e-05 4.9162730340253105e-02 0.0000000000000000e+00  -1.3102263512268548e-02 -2.1773724097360610e-02 0.0000000000000000e+00  -5.1461273865645377e-02 -3.1398342784078635e-05 0.0000000000000000e+00  -5.1629638650355310e-02 7.7208065427289278e-06 0.0000000000000000e+00  3.0893347264006278e-05 -5.1459459276481913e-02 0.0000000000000000e+00  5.1707031886040845e-02 1.8485891064411407e-07 0.0000000000000000e+00  5.1522083041990664e-02 5.3673743383432589e-05 0.0000000000000000e+00  5.1694361479938215e-02 6.3554641015053437e-06 0.0000000000000000e+00  4.8891920821533090e-02 -1.5135857090451346e-05 0.0000000000000000e+00  2.0943943287981765e-05 5.1342056666153407e-02 0.0000000000000000e+00  -3.6113130873585187e-05 5.1632234614603208e-02 0.0000000000000000e+00  -2.9823831699422632e-05 -5.1558382590731568e-02 0.0000000000000000e+00  7.5095784926848454e-03 5.1126855214974308e-02 0.0000000000000000e+00  -5.0292086133094667e-02 -7.0065432878281958e-03 0.0000000000000000e+00  6.9889286897749058e-03 -4.9819614364034842e-02 0.0000000000000000e+00  3.3237143235117574e-05 5.1518066116096842e-02 0.0000000000000000e+00  -2.4738894669422571e-05 -5.1618146807447349e-02 0.0000000000000000e+00  -5.1681565415129846e-02 -6.1376391155439612e-05 0.0000000000000000e+00  4.9415808261454801e-02 4.1829320949676089e-06 0.0000000000000000e+00  -5.1533462442903404e-02 -2.7948629326895843e-05 0.0000000000000000e+00  5.1594369449702068e-02 -6.7173405901455719e-05 0.0000000000000000e+00  -5.1566397094412075e-02 -1.3767131348830564e-04 0.0000000000000000e+00  4.0552883880073283e-06 -5.1427530901136095e-02 0.0000000000000000e+00  1.4647063512124968e-05 5.1468522146718959e-02 0.0000000000000000e+00  4.9964555203270145e-02 1.1609440095728086e-04 0.0000000000000000e+00  5.1325706883583892e-02 -2.7016220579312421e-03 0.0000000000000000e+00  5.1614625727724135e-02 1.4201505404322778e-05 0.0000000000000000e+00  -3.3907125091848344e-06 5.1556574096085821e-02 0.0000000000000000e+00  -9.2862836927393863e-05 5.1436802460245054e-02 0.0000000000000000e+00  -5.1543863784694603e-02 -2.6462863632147084e-05 0.0000000000000000e+00  -5.1410759790015623e-02 2.6707656786526097e-03 0.0000000000000000e+00  -1.5994429106925452e-03 -5.1217190585276351e-02 0.0000000000000000e+00  -9.8092737389604342e-06 -5.1492274712968612e-02 0.0000000000000000e+00  -1.8459954408374286e-03 5.1562688882134451e-02 0.0000000000000000e+00  -5.1442781988031323e-02 9.8879398174107956e-05 0.0000000000000000e+00  9.8630938350251920e-05 -5.1472850476859101e-02 0.0000000000000000e+00  5.1559647220403244e-02 2.7358979258615142e-06 0.0000000000000000e+00  -4.9815998665329403e-02 -4.8354030535915130e-05 0.0000000000000000e+00  5.1607062454843637e-02 -4.2330588984037162e-06 0.0000000000000000e+00  4.9530181027765997e-02 -1.7788007885894373e-04 0.0000000000000000e+00  -4.9519938404089518e-02 -3.7965752672947621e-04 0.0000000000000000e+00  3.0078891128340619e-05 5.1512306178340336e-02 0.0000000000000000e+00  8.0226588862536424e-05 -5.1513663311934077e-02 0.0000000000000000e+00  4.9268477542028212e-02 1.4027469510838428e-03 0.0000000000000000e+00  1.4925029654413626e-03 5.0925512642619665e-02 0.0000000000000000e+00  5.6141294722188566e-05 5.1561764283268703e-02 0.0000000000000000e+00  4.9985527666534982e-02 7.5926731871060911e-05 0.0000000000000000e+00  -5.1629722649955814e-02 -7.9835020966651816e-06 0.0000000000000000e+00  -4.6516619284264503e-02 8.1029183170138602e-05 0.0000000000000000e+00  6.4793515526587132e-05 4.5479148821304341e-02 0.0000000000000000e+00  -1.2150965175496625e-05 -5.1652551105918744e-02 0.0000000000000000e+00  -1.9876308846828971e-04 -4.6110020983707728e-02 0.0000000000000000e+00  5.1659163785381171e-02 -3.6698999423477543e-05 0.0000000000000000e+00  4.6121768185462472e-02 1.1044052675892494e-04 0.0000000000000000e+00  3.2492366977346975e-05 4.6951704802469192e-02 0.0000000000000000e+00  -5.0735542682830953e-02 2.8168551149341045e-04 0.0000000000000000e+00  -1.7100607343579282e-04 -4.6879768621171401e-02 0.0000000000000000e+00  2.2071004147468541e-04 4.7390284790659779e-02 0.0000000000000000e+00  -8.3734537704849635e-05 -4.7471757518029387e-02 0.0000000000000000e+00  1.4374469239037135e-02 1.4148957624041442e-02 0.0000000000000000e+00  2.7433257666856593e-02 3.1620244827513168e-02 0.0000000000000000e+00  -3.6942102051481266e-03 1.8023903567944092e-02 0.0000000000000000e+00  1.7983129961703069e-03 -5.0962963794629286e-02 0.0000000000000000e+00  -5.0812328071447845e-02 -1.6283935723653516e-03 0.0000000000000000e+00  -2.3400206767272469e-05 5.1429385122056075e-02 0.0000000000000000e+00  -1.0004973460893098e-06 -5.1521436163014918e-02 0.0000000000000000e+00  0.0000000000000000e+00 0.0000000000000000e+00 0.0000000000000000e+00  0.0000000000000000e+00 0.0000000000000000e+00 0.0000000000000000e+00  2.2751415396289314e-03 -4.4177399150404820e-02 0.0000000000000000e+00  -4.4174950575265742e-02 -1.5474332594071401e-03 0.0000000000000000e+00  -1.6785813511319400e-02 -4.3854528273500780e-03 0.0000000000000000e+00  2.7392153772700666e-02 -3.5822131174473679e-02 0.0000000000000000e+00  -4.4580251305393427e-02 -2.1108372176645372e-02 0.0000000000000000e+00  4.3997429531415957e-02 1.1141852433858559e-03 0.0000000000000000e+00  4.2100040423184059e-04 4.3601270753192437e-02 0.0000000000000000e+00  4.5046358808457001e-03 -1.6620455439611378e-02 0.0000000000000000e+00  0.0000000000000000e+00 0.0000000000000000e+00 0.0000000000000000e+00  4.7671119140568832e-02 -7.4007980902654447e-04 0.0000000000000000e+00  -4.2909428450464918e-03 -5.1462062552767592e-02 0.0000000000000000e+00  0.0000000000000000e+00 0.0000000000000000e+00 0.0000000000000000e+00  2.0195106225254203e-04 -4.7595311117977476e-02 0.0000000000000000e+00  0.0000000000000000e+00 0.0000000000000000e+00 0.0000000000000000e+00  2.7393370482364646e-04 4.8229267641179394e-02 0.0000000000000000e+00  -4.8384340339142622e-02 -4.1572315396591825e-04 0.0000000000000000e+00  0.0000000000000000e+00 0.0000000000000000e+00 0.0000000000000000e+00  0.0000000000000000e+00 0.0000000000000000e+00 0.0000000000000000e+00  0.0000000000000000e+00 0.0000000000000000e+00 0.0000000000000000e+00  3.3167813019598581e-05 -5.1549413084645238e-02 0.0000000000000000e+00  -7.5625959004798867e-05 5.1464586520350297e-02 0.0000000000000000e+00  5.1595751638636590e-02 1.4136595049128583e-05 0.0000000000000000e+00  5.0975883831746872e-02 -7.2517590518262807e-04 0.0000000000000000e+00  -5.1418357900391752e-02 -4.0112633492028676e-05 0.0000000000000000e+00  3.4537020231309010e-05 -5.1481119639834934e-02 0.0000000000000000e+00  7.1717977296235574e-05 5.1571533230505479e-02 0.0000000000000000e+00  -5.1667029674794640e-02 8.3195088439010979e-06 0.0000000000000000e+00  4.6847497882442753e-02 3.2078134123332494e-06 0.0000000000000000e+00  0.0000000000000000e+00 0.0000000000000000e+00 0.0000000000000000e+00  0.0000000000000000e+00 0.0000000000000000e+00 0.0000000000000000e+00  9.5180599024599242e-04 -4.8587012646527927e-02 0.0000000000000000e+00  -2.6674213364182779e-04 4.8716809785775153e-02 0.0000000000000000e+00  0.0000000000000000e+00 0.0000000000000000e+00 0.0000000000000000e+00  -5.0274910084019596e-02 5.8909174512789474e-04 0.0000000000000000e+00  0.0000000000000000e+00 0.0000000000000000e+00 0.0000000000000000e+00  0.0000000000000000e+00 0.0000000000000000e+00 0.0000000000000000e+00  5.0183755636903124e-02 1.8472963617930397e-04 0.0000000000000000e+00  -4.9818047796072136e-02 -5.2448772436656287e-05 0.0000000000000000e+00  0.0000000000000000e+00 0.0000000000000000e+00 0.0000000000000000e+00  0.0000000000000000e+00 0.0000000000000000e+00 0.0000000000000000e+00  -2.4131435795505748e-02 -3.7964479544046137e-02 0.0000000000000000e+00  -7.6855606504293208e-05 -5.1580820390969263e-02 0.0000000000000000e+00  -5.1406756813790318e-02 1.1729891159418729e-04 0.0000000000000000e+00  5.1539581949812202e-02 -9.8027414063964595e-06 0.0000000000000000e+00  4.5989227387446047e-05 5.1583075704272334e-02 0.0000000000000000e+00  -4.8718488185193073e-02 -2.1798912468621576e-04 0.0000000000000000e+00  2.6143953431635448e-04 4.8395561209413109e-02 0.0000000000000000e+00  -1.0215832288536446e-04 4.7627638804995889e-02 0.0000000000000000e+00  1.6233133561147640e-04 -4.8049547212290121e-02 0.0000000000000000e+00  6.0660056695101317e-05 -5.1465812427124509e-02 0.0000000000000000e+00  0.0000000000000000e+00 0.0000000000000000e+00 0.0000000000000000e+00  5.9179831249974627e-06 -5.1469942156585943e-02 0.0000000000000000e+00  -2.6964917988957324e-02 5.2926631064879274e-03 0.0000000000000000e+00  -4.0340060239628710e-02 2.6980842356614475e-02 0.0000000000000000e+00  4.6912188723581945e-02 2.1646065483535520e-02 0.0000000000000000e+00  -3.4287807444529413e-03 -4.8715354526858316e-02 0.0000000000000000e+00  1.4600382541809767e-02 -5.9791797772983312e-05 0.0000000000000000e+00  -4.8813776681814317e-02 -4.2702825651924338e-04 0.0000000000000000e+00  1.7174426250377763e-05 -4.8653152040667787e-02 0.0000000000000000e+00  -4.4947729291897108e-04 4.8784151649059242e-02 0.0000000000000000e+00  4.8373865557951638e-02 8.8204723182189274e-05 0.0000000000000000e+00  4.8820115186190623e-02 7.0807030687587401e-05 0.0000000000000000e+00  3.9908789053910579e-04 5.0894737105708403e-02 0.0000000000000000e+00  4.9252282488108368e-02 7.2873533868076767e-04 0.0000000000000000e+00  5.5970631493220584e-05 -5.1567576149682597e-02 0.0000000000000000e+00  4.1381626443698106e-05 5.1579825259442734e-02 0.0000000000000000e+00  5.1462215558807589e-02 3.0317311457536737e-05 0.0000000000000000e+00  -5.1522691451322801e-02 9.7525863098004280e-05 0.0000000000000000e+00  -4.7912782616904452e-02 4.2937761795695291e-04 0.0000000000000000e+00  -3.9420284536516406e-04 -5.0801537776821094e-02 0.0000000000000000e+00  -3.0738157920302269e-04 -4.7498018724510399e-02 0.0000000000000000e+00  -5.0846427027315885e-02 8.9156639233235713e-04 0.0000000000000000e+00  5.1623352093545009e-02 3.5046644515848104e-05 0.0000000000000000e+00  2.0879432537499369e-05 5.1589578924878192e-02 0.0000000000000000e+00  5.0836688429265801e-02 7.4667047145887027e-04 0.0000000000000000e+00  -6.1347368754899314e-03 3.2046543958008239e-02 0.0000000000000000e+00  0.0000000000000000e+00 0.0000000000000000e+00 0.0000000000000000e+00  0.0000000000000000e+00 0.0000000000000000e+00 0.0000000000000000e+00  0.0000000000000000e+00 0.0000000000000000e+00 0.0000000000000000e+00  -1.3273578947070077e-05 5.1593862202085443e-02 0.0000000000000000e+00  4.2701857964387188e-05 5.1419147598852237e-02 0.0000000000000000e+00  5.3773044002642907e-05 -5.1460139786860620e-02 0.0000000000000000e+00  -5.1505146671815535e-02 1.5217297469820200e-05 0.0000000000000000e+00  0.0000000000000000e+00 0.0000000000000000e+00 0.0000000000000000e+00  -2.3898443114008770e-05 -5.1547897377556808e-02 0.0000000000000000e+00  0.0000000000000000e+00 0.0000000000000000e+00 0.0000000000000000e+00  -4.7369053817234552e-02 -2.4242991847776321e-05 0.0000000000000000e+00  -7.6894497961666448e-05 -5.1511528845506568e-02 0.0000000000000000e+00  -3.7909915381236160e-03 4.7738203166851650e-02 0.0000000000000000e+00  -5.6938080765725520e-03 5.0271880881083142e-02 0.0000000000000000e+00  -5.1695918353673077e-02 6.9098867776416176e-06 