<?xml version="1.0"?>
<VTKFile type="UnstructuredGrid"  version="0.1"  >
<UnstructuredGrid>
<Piece  NumberOfPoints="778" NumberOfCells="1401">
<Points>
<DataArray  type="Float64"  NumberOfComponents="3"  format="ascii">1 -1 0  6 -1 0  6 1 0  1 1 0  1 6 0  -1 6 0  -1 1 0  -6 1 0  -6 -1 0  -1 -1 0  -1 -6 0  1 -6 0  1 3.5 0  -1 3.5 0  -1 -3.5 0  1 -3.5 0  3.5 -1 0  3.5 1 0  -3.5 -1 0  -3.5 1 0  -1 -2.25 0  1 -2.25 0  2.25 -1 0  2.25 1 0  -1 2.25 0  1 2.25 0  -1 4.75 0  1 4.75 0  -4.75 -1 0  -4.75 1 0  -2.25 1 0  -2.25 -1 0  1 -4.75 0  -1 -4.75 0  4.75 1 0  4.75 -1 0  0 0 0  -2.875 0 0  -1.625 0 0  -4.125 0 0  -6 0 0  0 2.875 0  2.875 0 0  0 6 0  1.625 0 0  0 -2.875 0  0 -1.625 0  0 1.625 0  0 4.125 0  0 -6 0  0 -4.125 0  4.125 0 0  6 0 0  -0.109375 5.0625 0  -5.0625 -0.109375 0  -0.109375 -5.0625 0  5.0625 0.109375 0  0.8125 -0.1875 0  -0.1875 -0.8125 0  -0.8125 0.1875 0  -0.1875 0.8125 0  1 5.375 0  -5.375 1 0  1 -5.375 0  5.375 -1 0  0.53515625 0.46484375 0  -5.375 -1 0  -1 5.375 0  -1 -5.375 0  -0.5 -6 0  5.375 1 0  6 0.5 0  3.5 0.3046875 0  3.43125 -0.34765625 0  2.875 -1 0  4.125 1 0  0.3046875 3.5 0  -0.34765625 3.56875 0  -1 4.125 0  1 4.125 0  -0.3046875 2.25 0  0.34765625 2.18125 0  1 1.625 0  -1 -1.625 0  -0.3046875 -3.5 0  0.34765625 -3.56875 0  1 -4.125 0  0.3046875 -2.25 0  -0.34765625 -2.18125 0  -1 -4.125 0  -1 -2.875 0  1 -2.875 0  1 -1.625 0  1.625 -1 0  1.625 1 0  2.25 0.3046875 0  2.18125 -0.34765625 0  4.125 -1 0  2.875 1 0  1 2.875 0  -1 1.625 0  -1 2.875 0  -4.125 -1 0  -2.25 0.3046875 0  -2.31875 -0.34765625 0  -2.875 -1 0  -1.625 1 0  -4.125 1 0  -3.5 0.3046875 0  -3.56875 -0.34765625 0  -1.625 -1 0  -2.875 1 0  0.380626321794301 1.06853329530276 0  -1.110819327731092 -0.3739495798319328 0  0.3739495798319328 -1.110819327731092 0  1.151210293219304 0.3991939332620648 0  -0.5 -4.4375 0  0.5 -4.4375 0  5.481553398058253 -0.3712833737864077 0  0.5 4.4375 0  0.5 6 0  -0.522503783594538 -0.3265648647465863 0  -1.3125 0.5 0  -0.5 6 0  0.3265648647465863 -0.522503783594538 0  4.4375 0.5 0  4.4375 -0.5 0  0.5 -6 0  -6 -0.5 0  -5.481553398058253 0.3712833737864077 0  -4.55 -0.4296875 0  -4.4375 0.5 0  -0.5 4.4375 0  0.4792930825242718 5.026881067961165 0  0.4792930825242718 -5.026881067961165 0  -0.5 1.3125 0  1.3125 -0.5 0  -0.5 -1.3125 0  0.25 5.518539952962044 0  0.2125133872612723 -5.500076563152851 0  4.969341874373811 -0.5152550785163683 0  -4.969341874373811 0.5152550785163683 0  3.927189744345589 -0.4712876597840069 0  -5.554036458333333 -0.25 0  5.554036458333333 0.25 0  -0.4690710616438356 -5.462756849315069 0  -0.4690710616438356 5.462756849315069 0  -6 0.5 0  -1.59556436210848 -0.5 0  -3.058421751829955 -0.5 0  -0.5 2.731982421875 0  0.5 2.691578248170045 0  2.691578248170045 -0.5 0  1.641211254104555 0.5 0  0.5 -1.768017578125 0  0.5 -3.058421751829955 0  0.5 1.699267578125 0  3.018017578125 0.5 0  -0.5 -3.018017578125 0  -2.731982421875 0.5 0  6 -0.5 0  -4.050017120925308 -0.5006099332648871 0  -3.940668202764977 0.5371363767281105 0  3.940668202764977 0.5371363767281105 0  0.4517449476047904 3.958458083832335 0  -0.4517449476047904 -3.958458083832335 0  -1.809331797235023 0.5371363767281105 0  -0.4517449476047904 1.791541916167665 0  -0.0546875 4.59375 0  -5.006445312499999 -0.58984375 0  4.605643203883496 -0.04725424757281554 0  4.90625 0.5546875 0  -0.5546875 4.90625 0  0.04725424757281554 -4.605643203883496 0  -0.586116118210531 -4.995821561900013 0  -4.603710222472543 0.04846236095466061 0  -3.1875 0.65234375 0  0.6163907621110913 3.147502300973589 0  2.5625 0.65234375 0  0.6163907621110913 -2.602497699026411 0  -0.637456713551384 3.189259902731882 0  -0.637456713551384 -2.560740097268118 0  -0.34765625 0.34765625 0  -0.639453125 0.708203125 0  0.089630126953125 0.437286376953125 0  -0.4238281249999999 -1.746875 0  1.746875 -0.4238281249999999 0  -0.4238281249999999 4.003125 0  0.4238281249999999 -4.003125 0  -2.5625 -1 0  3.1875 -1 0  -0.09375 -1.21875 0  1.21875 -0.09375 0  0.4020305405760241 -0.1120343241705621 0  -0.6280191027904287 -0.7577505545748082 0  0.90625 -0.59375 0  -1.205500904741459 0.03633725387965409 0  -0.02129048848213058 1.202028574265107 0  -0.1120343241705621 -0.4020305405760241 0  1 1.3125 0  -2.003587563743074 -0.6442361556699288 0  0.6640077663259718 -1.395873598614549 0  5.6875 -1 0  0.6308138580859101 -5.592151086468728 0  -5.6875 -1 0  0.6568032075915271 5.612942566073222 0  5.616530031741774 0.6612875396772174 0  -5.6875 1 0  1.9375 1 0  -1.3125 -1 0  0.1524679547155687 -3.232579139388032 0  0.1524679547155687 2.517420860611968 0  -3.232579139388032 -0.1524679547155687 0  -1.932320553757026 -0.252759244693845 0  2.517420860611968 -0.1524679547155687 0  -0.04776045819569434 -2.464949198504599 0  -0.2420369079104247 3.187693796852321 0  3.751304711039982 -0.1203080877045035 0  -5.397601941771943 -0.609026059866711 0  1.3125 1 0  1.9375 -1 0  -0.6946315101963667 -2.018229242739021 0  -0.6946315101963667 3.731770757260979 0  1 -3.8125 0  2.014364435550335 0.6166648446293641 0  -1 5.6875 0  -1 -5.6875 0  -2.653476149871182 -0.5942957192996303 0  3.096523850128818 -0.5942957192996303 0  1 1.9375 0  -3.8125 -1 0  0.586975531244212 -0.7975955463807081 0  -0.2946248980953088 -4.743710873809568 0  2.625453376770019 0.2814788818359375 0  -3.124546623229981 0.2814788818359375 0  -0.1204856417894853 5.631800603217465 0  5.253862011026742 0.6581468962876398 0  -0.65234375 2.108701557941197 0  0.65234375 3.641298442058803 0  -0.65234375 -3.641298442058803 0  -0.25 -5.744880569758637 0  -4.4375 -1 0  -0.3166212631734941 -2.713595940002554 0  0.6591479224207506 0.1324305912687024 0  0.8660781906552419 0.6468634238104103 0  -0.9887189158197679 0.6452930723873549 0  0.3149351927204296 -1.460971774996065 0  -0.3572852727880474 -0.009629022788047503 0  2.09375 -0.6866724363772454 0  0.6866724363772454 -3.65625 0  0.6866724363772454 2.09375 0  -3.65625 -0.6866724363772454 0  -3.5371337890625 0.65234375 0  -0.1389584113023952 1.944025352615082 0  -2.151744288472698 0.65234375 0  -0.1389584113023951 -3.805974647384918 0  0.1389584113023951 3.805974647384918 0  -2.578772109813904 0.1857224367977529 0  3.171227890186096 0.1857224367977529 0  3.360315647536819 0.65234375 0  0.1857224367977528 -1.921227890186096 0  0.65234375 -2.110315647536819 0  1.894016528727564 0.2415406141485869 0  -3.738232421875 0 0  0.2516875549238616 3.139069895099618 0  -1.913724396854074 0.2011142179916434 0  0.1669456568161915 0.7843410671359501 0  -2.5625 1 0  -1 -3.1875 0  -1 2.5625 0  0.1736601499778735 4.857955663330752 0  -0.1893536587212888 2.577300639071919 0  -0.1893536587212888 -3.172699360928081 0  3.852271904453858 0.206603749322895 0  -3.8125 1 0  -0.1250095034621793 -5.421707592768541 0  3.8125 -1 0  3.617304217264373 -0.6578427703661498 0  0.2630176195580202 -2.636558318495885 0  0.2674330357770522 1.399517071108871 0  0.631726413079416 1.339254523727593 0  4.700571879807737 0.2813704945051134 0  0.7143844363649634 -3.319538455208831 0  2.430461544791169 -0.7143844363649634 0  0.7143844363649634 2.430461544791169 0  -3.319538455208831 -0.7143844363649634 0  5.687045771608623 -0.6520598572553891 0  -5.687045771608623 0.6520598572553891 0  -1.15625 -0.7048248829733235 0  3.438284572973296 -0.01860298867862281 0  -0.03021088078697859 3.451572359862192 0  2.216682837011589 -0.02159585961918548 0  -2.191580885932936 -0.03126387444658879 0  0.1857410764408683 1.895679405349457 0  3.103473238297955 -0.253270943723272 0  -2.646526761702045 -0.253270943723272 0  -2.333137350671861 -0.6791984914172315 0  -1 5.0625 0  -0.6971235589909319 5.213002544375844 0  0.01618705363819947 2.225929180591695 0  0.01618705363819947 -3.524070819408305 0  0.5690054882403073 0.7951310720450595 0  -0.5764940424412852 -3.329579265180942 0  -0.5764940424412852 2.420420734819058 0  3.8125 1 0  -5.372163860234628 0.04365139563106807 0  5.164108319316826 -0.225040894204947 0  -5.361952437854323 0.6744012088984681 0  -5.0625 1 0  5.286835586913878 -0.6616705837083201 0  -5.692815197359722 0.1186699900166531 0  5.663425996156958 -0.07763197815533956 0  -0.9219866027132193 -0.1143045829323572 0  -1.394333629759332 -0.2233077430199216 0  0.09322478991596644 -0.9616596638655462 0  5.0625 -1 0  -0.14412109375 -1.92169189453125 0  -4.28125 -0.7212148987671345 0  0.2649796277366407 0.1735162902120744 0  -4.907855692236596 0.1868230509619793 0  -1.9375 1 0  1 5.0625 0  0.6915124486819284 -5.272938212550202 0  0.683483242673902 5.284948082526911 0  2.5625 -1 0  -1 -3.8125 0  -1 1.9375 0  5.0625 1 0  -1 -1.9375 0  1 5.6875 0  1 -5.6875 0  -1.9375 -1 0  -1 -2.5625 0  -1 3.1875 0  1 -3.1875 0  1 -2.5625 0  1 2.5625 0  1 3.1875 0  -5.0625 -1 0  -1 -1.3125 0  1.3125 -1 0  -1 1.3125 0  -1 3.8125 0  -1 4.4375 0  -4.4375 1 0  4.4375 -1 0  4.4375 1 0  -1.3125 1 0  1 4.4375 0  1 -4.4375 0  -1 -5.0625 0  -1 -4.4375 0  -3.1875 1 0  2.5625 1 0  1 -1.9375 0  1 -1.3125 0  5.6875 1 0  1 3.8125 0  3.1875 1 0  -3.1875 -1 0  1 -5.0625 0  1.35138038998199 0.6675097549271188 0  -0.465625 0.986328125 0  1.435958105992309 0.2563920171199723 0  1.915914614192913 -0.145782394639918 0  -0.8764440609469509 -0.5746869313612541 0  5.355194559946098 0.01566259380337612 0  -5.69333042954964 -0.5242868300459975 0  1.78125 -0.7320750794491524 0  0.7320750794491525 -3.96875 0  -0.3959075548864684 5.166422468926435 0  -4.770522389068053 -0.2123670725088856 0  -4.714160156249999 -0.69234375 0  -4.273484403713342 -0.278160994327167 0  0.9642590244517505 0.08196089404241463 0  0.3500261717645397 -4.727285205957206 0  0.6740868006020392 -4.765147848348443 0  0.6797550207247084 -1.089747806381148 0  -5.186479934354063 0.3046329157552757 0  -5.263288238215326 -0.3369092276308425 0  -2.433484016245305 0.5442571297016638 0  0.1707808983307866 -3.82363304980935 0  -0.1554012991031027 3.867535742674252 0  4.855508096805579 -0.2283975605264581 0  3.644517238097614 0.5646428152488787 0  0.05699603874439441 -0.6452791208413911 0  -0.3550018917972689 -0.5695324323732931 0  0.6
[...]
<PointData  Vectors="u"> 
<DataArray  type="Float64"  Name="u"  NumberOfComponents="3" format="ascii">0.0000000000000000e+00 0.0000000000000000e+00 0.0000000000000000e+00  0.0000000000000000e+00 0.0000000000000000e+00 0.0000000000000000e+00  0.0000000000000000e+00 0.0000000000000000e+00 0.0000000000000000e+00  0.0000000000000000e+00 0.0000000000000000e+00 0.0000000000000000e+00  0.0000000000000000e+00 0.0000000000000000e+00 0.0000000000000000e+00  0.0000000000000000e+00 0.0000000000000000e+00 0.0000000000000000e+00  0.0000000000000000e+00 0.0000000000000000e+00 0.0000000000000000e+00  0.0000000000000000e+00 0.0000000000000000e+00 0.0000000000000000e+00  0.0000000000000000e+00 0.0000000000000000e+00 0.0000000000000000e+00  0.0000000000000000e+00 0.0000000000000000e+00 0.0000000000000000e+00  0.0000000000000000e+00 0.0000000000000000e+00 0.0000000000000000e+00  0.0000000000000000e+00 0.0000000000000000e+00 0.0000000000000000e+00  0.0000000000000000e+00 0.0000000000000000e+00 0.0000000000000000e+00  0.0000000000000000e+00 0.0000000000000000e+00 0.0000000000000000e+00  0.0000000000000000e+00 0.0000000000000000e+00 0.0000000000000000e+00  0.0000000000000000e+00 0.0000000000000000e+00 0.0000000000000000e+00  0.0000000000000000e+00 0.0000000000000000e+00 0.0000000000000000e+00  0.0000000000000000e+00 0.0000000000000000e+00 0.0000000000000000e+00  0.0000000000000000e+00 0.0000000000000000e+00 0.0000000000000000e+00  0.0000000000000000e+00 0.0000000000000000e+00 0.0000000000000000e+00  0.0000000000000000e+00 0.0000000000000000e+00 0.0000000000000000e+00  0.0000000000000000e+00 0.0000000000000000e+00 0.0000000000000000e+00  0.0000000000000000e+00 0.0000000000000000e+00 0.0000000000000000e+00  0.0000000000000000e+00 0.0000000000000000e+00 0.0000000000000000e+00  0.0000000000000000e+00 0.0000000000000000e+00 0.0000000000000000e+00  0.0000000000000000e+00 0.0000000000000000e+00 0.0000000000000000e+00  0.0000000000000000e+00 0.0000000000000000e+00 0.0000000000000000e+00  0.0000000000000000e+00 0.0000000000000000e+00 0.0000000000000000e+00  0.0000000000000000e+00 0.0000000000000000e+00 0.0000000000000000e+00  0.0000000000000000e+00 0.0000000000000000e+00 0.0000000000000000e+00  0.0000000000000000e+00 0.0000000000000000e+00 0.0000000000000000e+00  0.0000000000000000e+00 0.0000000000000000e+00 0.0000000000000000e+00  0.0000000000000000e+00 0.0000000000000000e+00 0.0000000000000000e+00  0.0000000000000000e+00 0.0000000000000000e+00 0.0000000000000000e+00  0.0000000000000000e+00 0.0000000000000000e+00 0.0000000000000000e+00  0.0000000000000000e+00 0.0000000000000000e+00 0.0000000000000000e+00  -1.1680799687358878e-04 3.0812902936719340e-05 0.0000000000000000e+00  1.8793095590145446e-02 -5.1369104847037465e-06 0.0000000000000000e+00  1.7871466938117031e-02 5.3318091031871203e-05 0.0000000000000000e+00  1.8800599046626759e-02 -8.4324208352274354e-08 0.0000000000000000e+00  1.8822922014249593e-02 1.6574199763350702e-05 0.0000000000000000e+00  4.4723418416912263e-06 1.8758646057677592e-02 0.0000000000000000e+00  -1.8746972418420525e-02 2.1939530342036083e-05 0.0000000000000000e+00  1.7165064811460529e-05 1.8766380880625384e-02 0.0000000000000000e+00  -1.7906716467071912e-02 6.5951498295025053e-05 0.0000000000000000e+00  6.3662297608490951e-06 -1.8762825660362185e-02 0.0000000000000000e+00  -2.4657059307824718e-05 -1.7761859477353325e-02 0.0000000000000000e+00  2.0649087388146370e-05 1.7762894003872806e-02 0.0000000000000000e+00  1.9548568574927154e-05 1.8772191372419852e-02 0.0000000000000000e+00  1.9235261041510973e-05 -1.8763229968159757e-02 0.0000000000000000e+00  2.6182374935696796e-05 -1.8796678870012084e-02 0.0000000000000000e+00  -1.8810933896227556e-02 -3.6533169806184806e-06 0.0000000000000000e+00  -1.8784003685053383e-02 -1.8169289041456278e-05 0.0000000000000000e+00  -1.9755566244784876e-05 1.8814605844655236e-02 0.0000000000000000e+00  1.8761259069136896e-02 -1.6827194647625390e-05 0.0000000000000000e+00  -2.7789117429174980e-05 -1.8647146434701955e-02 0.0000000000000000e+00  -1.8709698818938716e-02 -2.0769671856460186e-05 0.0000000000000000e+00  -1.2075435197170893e-02 -2.5708211111022655e-03 0.0000000000000000e+00  2.3516026939184491e-03 -1.1778235076005356e-02 0.0000000000000000e+00  1.1735592607751769e-02 2.5992921900579273e-03 0.0000000000000000e+00  2.5279816554234745e-03 1.1791594289314576e-02 0.0000000000000000e+00  0.0000000000000000e+00 0.0000000000000000e+00 0.0000000000000000e+00  0.0000000000000000e+00 0.0000000000000000e+00 0.0000000000000000e+00  0.0000000000000000e+00 0.0000000000000000e+00 0.0000000000000000e+00  0.0000000000000000e+00 0.0000000000000000e+00 0.0000000000000000e+00  -8.3496215769565379e-03 6.9402310898733334e-03 0.0000000000000000e+00  0.0000000000000000e+00 0.0000000000000000e+00 0.0000000000000000e+00  0.0000000000000000e+00 0.0000000000000000e+00 0.0000000000000000e+00  0.0000000000000000e+00 0.0000000000000000e+00 0.0000000000000000e+00  3.6607635556011272e-05 -1.7929137569419357e-02 0.0000000000000000e+00  0.0000000000000000e+00 0.0000000000000000e+00 0.0000000000000000e+00  -1.8730322911504730e-02 -4.1659631979285978e-06 0.0000000000000000e+00  -1.8579021460013948e-02 3.2015285696259277e-05 0.0000000000000000e+00  -1.8521564686713277e-02 -6.4937430796377763e-06 0.0000000000000000e+00  0.0000000000000000e+00 0.0000000000000000e+00 0.0000000000000000e+00  0.0000000000000000e+00 0.0000000000000000e+00 0.0000000000000000e+00  9.0844332681072756e-06 1.8703188898755201e-02 0.0000000000000000e+00  -6.7638068795331679e-06 1.8688774539439020e-02 0.0000000000000000e+00  0.0000000000000000e+00 0.0000000000000000e+00 0.0000000000000000e+00  0.0000000000000000e+00 0.0000000000000000e+00 0.0000000000000000e+00  9.0411929622983598e-05 1.8507530861051801e-02 0.0000000000000000e+00  -1.5566254429674601e-04 1.8641004695736277e-02 0.0000000000000000e+00  0.0000000000000000e+00 0.0000000000000000e+00 0.0000000000000000e+00  0.0000000000000000e+00 0.0000000000000000e+00 0.0000000000000000e+00  3.3151382215294789e-05 -1.8610339821221598e-02 0.0000000000000000e+00  6.4268159246819468e-06 -1.8725333304819892e-02 0.0000000000000000e+00  0.0000000000000000e+00 0.0000000000000000e+00 0.0000000000000000e+00  -8.6535487977457511e-05 -1.8687512571446300e-02 0.0000000000000000e+00  1.8660737942051910e-04 -1.8586188415387447e-02 0.0000000000000000e+00  0.0000000000000000e+00 0.0000000000000000e+00 0.0000000000000000e+00  0.0000000000000000e+00 0.0000000000000000e+00 0.0000000000000000e+00  0.0000000000000000e+00 0.0000000000000000e+00 0.0000000000000000e+00  0.0000000000000000e+00 0.0000000000000000e+00 0.0000000000000000e+00  0.0000000000000000e+00 0.0000000000000000e+00 0.0000000000000000e+00  0.0000000000000000e+00 0.0000000000000000e+00 0.0000000000000000e+00  -1.8436969369967488e-02 1.5178298197019585e-04 0.0000000000000000e+00  -1.8629006735014216e-02 -1.3150919272688147e-04 0.0000000000000000e+00  0.0000000000000000e+00 0.0000000000000000e+00 0.0000000000000000e+00  0.0000000000000000e+00 0.0000000000000000e+00 0.0000000000000000e+00  0.0000000000000000e+00 0.0000000000000000e+00 0.0000000000000000e+00  0.0000000000000000e+00 0.0000000000000000e+00 0.0000000000000000e+00  0.0000000000000000e+00 0.0000000000000000e+00 0.0000000000000000e+00  0.0000000000000000e+00 0.0000000000000000e+00 0.0000000000000000e+00  1.8424307787105177e-02 1.7465514438903492e-04 0.0000000000000000e+00  1.8491983034602581e-02 -1.0849677378618809e-04 0.0000000000000000e+00  0.0000000000000000e+00 0.0000000000000000e+00 0.0000000000000000e+00  0.0000000000000000e+00 0.0000000000000000e+00 0.0000000000000000e+00  0.0000000000000000e+00 0.0000000000000000e+00 0.0000000000000000e+00  1.8467061190041902e-02 3.0275012679417409e-05 0.0000000000000000e+00  1.8745100263801221e-02 8.3150806403394081e-06 0.0000000000000000e+00  0.0000000000000000e+00 0.0000000000000000e+00 0.0000000000000000e+00  0.0000000000000000e+00 0.0000000000000000e+00 0.0000000000000000e+00  -3.4609600198694437e-03 1.5529689920802356e-02 0.0000000000000000e+00  1.6015350685938658e-02 -3.5547365248563261e-03 0.0000000000000000e+00  -3.2074216028057595e-03 -1.6236161241269347e-02 0.0000000000000000e+00  -1.6413751248264830e-02 3.1319652236266671e-03 0.0000000000000000e+00  2.9025076393826090e-05 -1.7803975706308303e-02 0.0000000000000000e+00  -5.9729022501928410e-06 -1.8679123472859258e-02 0.0000000000000000e+00  -1.8570836774209697e-02 -2.0424122281868943e-05 0.0000000000000000e+00  -9.7240065714974436e-07 1.8647667685091920e-02 0.0000000000000000e+00  4.1040992223681866e-05 1.8524463299185490e-02 0.0000000000000000e+00  7.8749772571313145e-03 -4.9230505884783841e-03 0.0000000000000000e+00  1.7855768618302247e-02 2.5646401245817230e-03 0.0000000000000000e+00  2.6411094228884496e-05 1.7901373409896785e-02 0.0000000000000000e+00  -4.6117848532804826e-03 -7.7635794190555928e-03 0.0000000000000000e+00  -1.8442067661076329e-02 2.0398608407927239e-05 0.0000000000000000e+00  -1.8687883697835139e-02 8.7765412415673695e-06 0.0000000000000000e+00  4.3268865391863861e-05 -1.8460509066305877e-02 0.0000000000000000e+00  1.8727756595497663e-02 1.0377630900177776e-05 0.0000000000000000e+00  1.8530329603841270e-02 2.5666473430012971e-05 0.0000000000000000e+00  1.8649368545366508e-02 5.0373424936308565e-06 0.0000000000000000e+00  1.7648618624727910e-02 -8.1706990565482975e-06 0.0000000000000000e+00  2.8393797127877781e-05 1.8499946518881632e-02 0.0000000000000000e+00  -2.6105709881708881e-05 1.8676131020536824e-02 0.0000000000000000e+00  -9.3557917725703061e-06 -1.8582312378412090e-02 0.0000000000000000e+00  2.9451733726629840e-03 1.8418567398446765e-02 0.0000000000000000e+00  -1.8012553473804701e-02 -2.7532295883101925e-03 0.0000000000000000e+00  2.5296975363621951e-03 -1.7896978638892690e-02 0.0000000000000000e+00  1.4194348158282142e-05 1.8714791533734884e-02 0.0000000000000000e+00  -7.4530326674074936e-06 -1.8809820845505792e-02 0.0000000000000000e+00  -1.8701360856452780e-02 -4.1266346893688316e-05 0.0000000000000000e+00  1.7694349107473320e-02 1.3182601856461348e-05 0.0000000000000000e+00  -1.8537342268575341e-02 -8.9823872956351391e-06 0.0000000000000000e+00  1.8606330113765040e-02 -3.3147057930812075e-06 0.0000000000000000e+00  -1.8723947230390930e-02 -4.9209715167640145e-05 0.0000000000000000e+00  8.6020875253036687e-06 -1.8556968502868375e-02 0.0000000000000000e+00  2.4864728438774665e-06 1.8535387374083431e-02 0.0000000000000000e+00  1.8042166072992197e-02 5.4374647722934470e-05 0.0000000000000000e+00  1.8533262392068272e-02 -1.0601447001059366e-03 0.0000000000000000e+00  1.8612467379909726e-02 -2.5118977138219312e-06 0.0000000000000000e+00  1.4057652078978487e-05 1.8574380663990080e-02 0.0000000000000000e+00  -4.8567026688776193e-05 1.8499638827820762e-02 0.0000000000000000e+00  -1.8577502404178044e-02 -5.3178574037214316e-06 0.0000000000000000e+00  -1.8567149463031129e-02 1.0818462508700270e-03 0.0000000000000000e+00  -7.1638540072206918e-04 -1.8572469924784417e-02 0.0000000000000000e+00  1.0382201278840791e-05 -1.8497863893408652e-02 0.0000000000000000e+00  -7.9074074365942826e-04 1.8705589299698632e-02 0.0000000000000000e+00  -1.8661230843230913e-02 5.1906341846929244e-05 0.0000000000000000e+00  2.5582057141628255e-05 -1.8561792360062217e-02 0.0000000000000000e+00  1.8494848737698209e-02 2.0918036860910637e-06 0.0000000000000000e+00  -1.7860561303646143e-02 -1.5308572480384351e-06 0.0000000000000000e+00  1.8686111032912053e-02 -3.1400309519406612e-06 0.0000000000000000e+00  1.7788288340753109e-02 -6.6764796235212027e-05 0.0000000000000000e+00  -1.7813482426021061e-02 -1.3582047154569050e-04 0.0000000000000000e+00  2.3580613220512463e-05 1.8536930574637782e-02 0.0000000000000000e+00  3.0247029959964560e-05 -1.8512718934075661e-02 0.0000000000000000e+00  1.7823679643925339e-02 5.5915636055447072e-04 0.0000000000000000e+00  6.1885068406680895e-04 1.8409782527583914e-02 0.0000000000000000e+00  2.4679500733809074e-05 1.8769160701855865e-02 0.0000000000000000e+00  1.7930102251239026e-02 -1.6797002403782529e-06 0.0000000000000000e+00  -1.8799578546965266e-02 -4.6100248492383828e-06 0.0000000000000000e+00  -1.6115003486463296e-02 3.6820031173781923e-05 0.0000000000000000e+00  1.8947781755771798e-05 1.5512528644504529e-02 0.0000000000000000e+00  -3.0670629659819005e-06 -1.8802939795966280e-02 0.0000000000000000e+00  -5.5840962433320161e-05 -1.5836882171163948e-02 0.0000000000000000e+00  1.8789406524642244e-02 -8.8704897547000921e-06 0.0000000000000000e+00  1.5567336564711246e-02 2.7722521508234410e-05 0.0000000000000000e+00  -4.2608533481978278e-06 1.6158722389062987e-02 0.0000000000000000e+00  -1.8178803370258633e-02 1.1749842623508888e-04 0.0000000000000000e+00  -2.8518750044395323e-05 -1.6141561157593118e-02 0.0000000000000000e+00  6.2334400993889193e-05 1.6109381003161255e-02 0.0000000000000000e+00  -4.3267440243102343e-06 -1.5866126331689798e-02 0.0000000000000000e+00  5.1363561083645412e-03 4.9715273260179573e-03 0.0000000000000000e+00  9.6510116706299519e-03 1.1285426115090086e-02 0.0000000000000000e+00  -1.2636118508666111e-03 6.4495967767267534e-03 0.0000000000000000e+00  7.2951785940284593e-04 -1.8412138424410081e-02 0.0000000000000000e+00  -1.8383614444128268e-02 -6.5289747414861679e-04 0.0000000000000000e+00  -1.0157445385201779e-05 1.8508308597452939e-02 0.0000000000000000e+00  7.6601019441850759e-06 -1.8543514210477188e-02 0.0000000000000000e+00  0.0000000000000000e+00 0.0000000000000000e+00 0.0000000000000000e+00  0.0000000000000000e+00 0.0000000000000000e+00 0.0000000000000000e+00  8.5189892128219183e-04 -1.5848459758944933e-02 0.0000000000000000e+00  -1.5950206342633930e-02 -4.9366527846386678e-04 0.0000000000000000e+00  -6.0214314518563248e-03 -1.5391322942626439e-03 0.0000000000000000e+00  1.0028570669195453e-02 -1.2854451247200287e-02 0.0000000000000000e+00  -1.5834415414919440e-02 -7.9219274433382399e-03 0.0000000000000000e+00  1.5930142971541106e-02 4.8278316016711029e-04 0.0000000000000000e+00  8.6893850444523096e-05 1.5719473765050024e-02 0.0000000000000000e+00  1.5784863826385275e-03 -5.9660093883630106e-03 0.0000000000000000e+00  0.0000000000000000e+00 0.0000000000000000e+00 0.0000000000000000e+00  1.6299311706419125e-02 -2.7148934085850139e-04 0.0000000000000000e+00  -2.0847612459666547e-03 -1.8588572698847713e-02 0.0000000000000000e+00  0.0000000000000000e+00 0.0000000000000000e+00 0.0000000000000000e+00  6.5079362051661822e-05 -1.6162620547620115e-02 0.0000000000000000e+00  0.0000000000000000e+00 0.0000000000000000e+00 0.0000000000000000e+00  8.3555120991637630e-05 1.6543026915077235e-02 0.0000000000000000e+00  -1.6599981571690722e-02 -1.3202939313496724e-04 0.0000000000000000e+00  0.0000000000000000e+00 0.0000000000000000e+00 0.0000000000000000e+00  0.0000000000000000e+00 0.0000000000000000e+00 0.0000000000000000e+00  0.0000000000000000e+00 0.0000000000000000e+00 0.0000000000000000e+00  1.0475417266104382e-05 -1.8753004055237520e-02 0.0000000000000000e+00  -3.4455744542474387e-05 1.8713715735757218e-02 0.0000000000000000e+00  1.8784509688787934e-02 4.1998859119725290e-06 0.0000000000000000e+00  1.8475454572152918e-02 -2.9511568872710457e-04 0.0000000000000000e+00  -1.8705985667176270e-02 -1.8414473943191594e-05 0.0000000000000000e+00  1.4450223217300487e-05 -1.8720865460208468e-02 0.0000000000000000e+00  1.9529197543322207e-05 1.8653774116185962e-02 0.0000000000000000e+00  -1.8793321281685926e-02 3.5212511884528971e-06 0.0000000000000000e+00  1.5771489419862578e-02 1.3409501251017790e-06 0.0000000000000000e+00  0.0000000000000000e+00 0.0000000000000000e+00 0.0000000000000000e+00  0.0000000000000000e+00 0.0000000000000000e+00 0.0000000000000000e+00  3.8685004950900388e-04 -1.6546008747393124e-02 0.0000000000000000e+00  -8.3961411172448334e-05 1.6512416769567939e-02 0.0000000000000000e+00  0.0000000000000000e+00 0.0000000000000000e+00 0.0000000000000000e+00  -1.8011969733704010e-02 2.5503549375137841e-04 0.0000000000000000e+00  0.0000000000000000e+00 0.0000000000000000e+00 0.0000000000000000e+00  0.0000000000000000e+00 0.0000000000000000e+00 0.0000000000000000e+00  1.8115751870300043e-02 4.5773141456670247e-05 0.0000000000000000e+00  -1.7990796964398169e-02 -2.2501777577055465e-05 0.0000000000000000e+00  0.0000000000000000e+00 0.0000000000000000e+00 0.0000000000000000e+00  0.0000000000000000e+00 0.0000000000000000e+00 0.0000000000000000e+00  -8.7217753551410877e-03 -1.3557541469631644e-02 0.0000000000000000e+00  -1.2102919331544949e-05 -1.8507591091689382e-02 0.0000000000000000e+00  -1.8585156834681600e-02 6.3924937963827288e-05 0.0000000000000000e+00  1.8687654402550720e-02 1.9700019369888195e-06 0.0000000000000000e+00  1.5097421327179738e-05 1.8784375785033058e-02 0.0000000000000000e+00  -1.6515257083331500e-02 -8.4822231371589092e-05 0.0000000000000000e+00  1.1604943815626425e-04 1.6280689983068499e-02 0.0000000000000000e+00  -7.0924086962301459e-06 1.6253666498501008e-02 0.0000000000000000e+00  5.2622380576739365e-05 -1.6218231626291903e-02 0.0000000000000000e+00  1.9306384104017284e-05 -1.8586428200339237e-02 0.0000000000000000e+00  0.0000000000000000e+00 0.0000000000000000e+00 0.0000000000000000e+00  3.8452705784193906e-06 -1.8532354592177478e-02 0.0000000000000000e+00  -9.5652552128571919e-03 1.9674448836637659e-03 0.0000000000000000e+00  -1.4484741537551053e-02 9.7372248016183074e-03 0.0000000000000000e+00  1.6759866951946371e-02 7.8347824818905225e-03 0.0000000000000000e+00  -1.3831014043922032e-03 -1.7617960067024926e-02 0.0000000000000000e+00  5.1747359845516075e-03 1.1686914592463713e-04 0.0000000000000000e+00  -1.6730895927138188e-02 -1.7759692656511565e-04 0.0000000000000000e+00  5.3333453712366404e-06 -1.6748058164402203e-02 0.0000000000000000e+00  -1.8743442264554445e-04 1.6721703726056806e-02 0.0000000000000000e+00  1.6538206309580292e-02 2.0037198125054013e-05 0.0000000000000000e+00  1.6482581838443554e-02 -3.2000910951189934e-06 0.0000000000000000e+00  1.5548089122568550e-04 1.8485623150128642e-02 0.0000000000000000e+00  1.6502372128140690e-02 3.1193670762945733e-04 0.0000000000000000e+00  2.6719909966187592e-05 -1.8766213971139842e-02 0.0000000000000000e+00  1.7064990368623900e-05 1.8776086172670022e-02 0.0000000000000000e+00  1.8666440085536629e-02 2.5789555753808218e-05 0.0000000000000000e+00  -1.8765362563760310e-02 3.6111968377772929e-05 0.0000000000000000e+00  -1.6057953443845696e-02 1.2846695576487462e-04 0.0000000000000000e+00  -1.5043638594030092e-04 -1.8468393123279254e-02 0.0000000000000000e+00  -1.5042845694941546e-04 -1.5924807849271576e-02 0.0000000000000000e+00  -1.8444879697475804e-02 3.8021058415214898e-04 0.0000000000000000e+00  1.8791703260463231e-02 1.4864695103665852e-05 0.0000000000000000e+00  4.7133826593868140e-06 1.8723546938702294e-02 0.0000000000000000e+00  1.8459499365553272e-02 3.1246563562680667e-04 0.0000000000000000e+00  -2.1509249123967868e-03 1.1497996810229866e-02 0.0000000000000000e+00  0.0000000000000000e+00 0.0000000000000000e+00 0.0000000000000000e+00  0.0000000000000000e+00 0.0000000000000000e+00 0.0000000000000000e+00  0.0000000000000000e+00 0.0000000000000000e+00 0.0000000000000000e+00  -6.9672524123094702e-06 1.8794963979998094e-02 0.0000000000000000e+00  1.8085609808187230e-05 1.8696675187153108e-02 0.0000000000000000e+00  2.0998724034271280e-05 -1.8724945290900023e-02 0.0000000000000000e+00  -1.8605894587101702e-02 -9.6343000185839183e-06 0.0000000000000000e+00  0.0000000000000000e+00 0.0000000000000000e+00 0.0000000000000000e+00  -4.9673988144792455e-06 -1.8761882428889601e-02 0.0000000000000000e+00  0.0000000000000000e+00 0.0000000000000000e+00 0.0000000000000000e+00  -1.6057318508710356e-02 -2.2986536562115912e-05 0.0000000000000000e+00  -3.3730239876987520e-05 -1.8697878446697031e-02 0.0000000000000000e+00  -1.5375221495424953e-03 1.7191428319317269e-02 0.0000000000000000e+00  -2.6284123468224992e-03 1.8308474305478186e-02 0.0000000000000000e+00  -1.8762159613426900e-02 2.9357957699110230e-0