<?xml version="1.0"?>
<VTKFile type="UnstructuredGrid"  version="0.1"  >
<UnstructuredGrid>
<Piece  NumberOfPoints="778" NumberOfCells="1401">
<Points>
<DataArray  type="Float64"  NumberOfComponents="3"  format="ascii">1 -1 0  6 -1 0  6 1 0  1 1 0  1 6 0  -1 6 0  -1 1 0  -6 1 0  -6 -1 0  -1 -1 0  -1 -6 0  1 -6 0  1 3.5 0  -1 3.5 0  -1 -3.5 0  1 -3.5 0  3.5 -1 0  3.5 1 0  -3.5 -1 0  -3.5 1 0  -1 -2.25 0  1 -2.25 0  2.25 -1 0  2.25 1 0  -1 2.25 0  1 2.25 0  -1 4.75 0  1 4.75 0  -4.75 -1 0  -4.75 1 0  -2.25 1 0  -2.25 -1 0  1 -4.75 0  -1 -4.75 0  4.75 1 0  4.75 -1 0  0 0 0  -2.875 0 0  -1.625 0 0  -4.125 0 0  -6 0 0  0 2.875 0  2.875 0 0  0 6 0  1.625 0 0  0 -2.875 0  0 -1.625 0  0 1.625 0  0 4.125 0  0 -6 0  0 -4.125 0  4.125 0 0  6 0 0  -0.109375 5.0625 0  -5.0625 -0.109375 0  -0.109375 -5.0625 0  5.0625 0.109375 0  0.8125 -0.1875 0  -0.1875 -0.8125 0  -0.8125 0.1875 0  -0.1875 0.8125 0  1 5.375 0  -5.375 1 0  1 -5.375 0  5.375 -1 0  0.53515625 0.46484375 0  -5.375 -1 0  -1 5.375 0  -1 -5.375 0  -0.5 -6 0  5.375 1 0  6 0.5 0  3.5 0.3046875 0  3.43125 -0.34765625 0  2.875 -1 0  4.125 1 0  0.3046875 3.5 0  -0.34765625 3.56875 0  -1 4.125 0  1 4.125 0  -0.3046875 2.25 0  0.34765625 2.18125 0  1 1.625 0  -1 -1.625 0  -0.3046875 -3.5 0  0.34765625 -3.56875 0  1 -4.125 0  0.3046875 -2.25 0  -0.34765625 -2.18125 0  -1 -4.125 0  -1 -2.875 0  1 -2.875 0  1 -1.625 0  1.625 -1 0  1.625 1 0  2.25 0.3046875 0  2.18125 -0.34765625 0  4.125 -1 0  2.875 1 0  1 2.875 0  -1 1.625 0  -1 2.875 0  -4.125 -1 0  -2.25 0.3046875 0  -2.31875 -0.34765625 0  -2.875 -1 0  -1.625 1 0  -4.125 1 0  -3.5 0.3046875 0  -3.56875 -0.34765625 0  -1.625 -1 0  -2.875 1 0  0.380626321794301 1.06853329530276 0  -1.110819327731092 -0.3739495798319328 0  0.3739495798319328 -1.110819327731092 0  1.151210293219304 0.3991939332620648 0  -0.5 -4.4375 0  0.5 -4.4375 0  5.481553398058253 -0.3712833737864077 0  0.5 4.4375 0  0.5 6 0  -0.522503783594538 -0.3265648647465863 0  -1.3125 0.5 0  -0.5 6 0  0.3265648647465863 -0.522503783594538 0  4.4375 0.5 0  4.4375 -0.5 0  0.5 -6 0  -6 -0.5 0  -5.481553398058253 0.3712833737864077 0  -4.55 -0.4296875 0  -4.4375 0.5 0  -0.5 4.4375 0  0.4792930825242718 5.026881067961165 0  0.4792930825242718 -5.026881067961165 0  -0.5 1.3125 0  1.3125 -0.5 0  -0.5 -1.3125 0  0.25 5.518539952962044 0  0.2125133872612723 -5.500076563152851 0  4.969341874373811 -0.5152550785163683 0  -4.969341874373811 0.5152550785163683 0  3.927189744345589 -0.4712876597840069 0  -5.554036458333333 -0.25 0  5.554036458333333 0.25 0  -0.4690710616438356 -5.462756849315069 0  -0.4690710616438356 5.462756849315069 0  -6 0.5 0  -1.59556436210848 -0.5 0  -3.058421751829955 -0.5 0  -0.5 2.731982421875 0  0.5 2.691578248170045 0  2.691578248170045 -0.5 0  1.641211254104555 0.5 0  0.5 -1.768017578125 0  0.5 -3.058421751829955 0  0.5 1.699267578125 0  3.018017578125 0.5 0  -0.5 -3.018017578125 0  -2.731982421875 0.5 0  6 -0.5 0  -4.050017120925308 -0.5006099332648871 0  -3.940668202764977 0.5371363767281105 0  3.940668202764977 0.5371363767281105 0  0.4517449476047904 3.958458083832335 0  -0.4517449476047904 -3.958458083832335 0  -1.809331797235023 0.5371363767281105 0  -0.4517449476047904 1.791541916167665 0  -0.0546875 4.59375 0  -5.006445312499999 -0.58984375 0  4.605643203883496 -0.04725424757281554 0  4.90625 0.5546875 0  -0.5546875 4.90625 0  0.04725424757281554 -4.605643203883496 0  -0.586116118210531 -4.995821561900013 0  -4.603710222472543 0.04846236095466061 0  -3.1875 0.65234375 0  0.6163907621110913 3.147502300973589 0  2.5625 0.65234375 0  0.6163907621110913 -2.602497699026411 0  -0.637456713551384 3.189259902731882 0  -0.637456713551384 -2.560740097268118 0  -0.34765625 0.34765625 0  -0.639453125 0.708203125 0  0.089630126953125 0.437286376953125 0  -0.4238281249999999 -1.746875 0  1.746875 -0.4238281249999999 0  -0.4238281249999999 4.003125 0  0.4238281249999999 -4.003125 0  -2.5625 -1 0  3.1875 -1 0  -0.09375 -1.21875 0  1.21875 -0.09375 0  0.4020305405760241 -0.1120343241705621 0  -0.6280191027904287 -0.7577505545748082 0  0.90625 -0.59375 0  -1.205500904741459 0.03633725387965409 0  -0.02129048848213058 1.202028574265107 0  -0.1120343241705621 -0.4020305405760241 0  1 1.3125 0  -2.003587563743074 -0.6442361556699288 0  0.6640077663259718 -1.395873598614549 0  5.6875 -1 0  0.6308138580859101 -5.592151086468728 0  -5.6875 -1 0  0.6568032075915271 5.612942566073222 0  5.616530031741774 0.6612875396772174 0  -5.6875 1 0  1.9375 1 0  -1.3125 -1 0  0.1524679547155687 -3.232579139388032 0  0.1524679547155687 2.517420860611968 0  -3.232579139388032 -0.1524679547155687 0  -1.932320553757026 -0.252759244693845 0  2.517420860611968 -0.1524679547155687 0  -0.04776045819569434 -2.464949198504599 0  -0.2420369079104247 3.187693796852321 0  3.751304711039982 -0.1203080877045035 0  -5.397601941771943 -0.609026059866711 0  1.3125 1 0  1.9375 -1 0  -0.6946315101963667 -2.018229242739021 0  -0.6946315101963667 3.731770757260979 0  1 -3.8125 0  2.014364435550335 0.6166648446293641 0  -1 5.6875 0  -1 -5.6875 0  -2.653476149871182 -0.5942957192996303 0  3.096523850128818 -0.5942957192996303 0  1 1.9375 0  -3.8125 -1 0  0.586975531244212 -0.7975955463807081 0  -0.2946248980953088 -4.743710873809568 0  2.625453376770019 0.2814788818359375 0  -3.124546623229981 0.2814788818359375 0  -0.1204856417894853 5.631800603217465 0  5.253862011026742 0.6581468962876398 0  -0.65234375 2.108701557941197 0  0.65234375 3.641298442058803 0  -0.65234375 -3.641298442058803 0  -0.25 -5.744880569758637 0  -4.4375 -1 0  -0.3166212631734941 -2.713595940002554 0  0.6591479224207506 0.1324305912687024 0  0.8660781906552419 0.6468634238104103 0  -0.9887189158197679 0.6452930723873549 0  0.3149351927204296 -1.460971774996065 0  -0.3572852727880474 -0.009629022788047503 0  2.09375 -0.6866724363772454 0  0.6866724363772454 -3.65625 0  0.6866724363772454 2.09375 0  -3.65625 -0.6866724363772454 0  -3.5371337890625 0.65234375 0  -0.1389584113023952 1.944025352615082 0  -2.151744288472698 0.65234375 0  -0.1389584113023951 -3.805974647384918 0  0.1389584113023951 3.805974647384918 0  -2.578772109813904 0.1857224367977529 0  3.171227890186096 0.1857224367977529 0  3.360315647536819 0.65234375 0  0.1857224367977528 -1.921227890186096 0  0.65234375 -2.110315647536819 0  1.894016528727564 0.2415406141485869 0  -3.738232421875 0 0  0.2516875549238616 3.139069895099618 0  -1.913724396854074 0.2011142179916434 0  0.1669456568161915 0.7843410671359501 0  -2.5625 1 0  -1 -3.1875 0  -1 2.5625 0  0.1736601499778735 4.857955663330752 0  -0.1893536587212888 2.577300639071919 0  -0.1893536587212888 -3.172699360928081 0  3.852271904453858 0.206603749322895 0  -3.8125 1 0  -0.1250095034621793 -5.421707592768541 0  3.8125 -1 0  3.617304217264373 -0.6578427703661498 0  0.2630176195580202 -2.636558318495885 0  0.2674330357770522 1.399517071108871 0  0.631726413079416 1.339254523727593 0  4.700571879807737 0.2813704945051134 0  0.7143844363649634 -3.319538455208831 0  2.430461544791169 -0.7143844363649634 0  0.7143844363649634 2.430461544791169 0  -3.319538455208831 -0.7143844363649634 0  5.687045771608623 -0.6520598572553891 0  -5.687045771608623 0.6520598572553891 0  -1.15625 -0.7048248829733235 0  3.438284572973296 -0.01860298867862281 0  -0.03021088078697859 3.451572359862192 0  2.216682837011589 -0.02159585961918548 0  -2.191580885932936 -0.03126387444658879 0  0.1857410764408683 1.895679405349457 0  3.103473238297955 -0.253270943723272 0  -2.646526761702045 -0.253270943723272 0  -2.333137350671861 -0.6791984914172315 0  -1 5.0625 0  -0.6971235589909319 5.213002544375844 0  0.01618705363819947 2.225929180591695 0  0.01618705363819947 -3.524070819408305 0  0.5690054882403073 0.7951310720450595 0  -0.5764940424412852 -3.329579265180942 0  -0.5764940424412852 2.420420734819058 0  3.8125 1 0  -5.372163860234628 0.04365139563106807 0  5.164108319316826 -0.225040894204947 0  -5.361952437854323 0.6744012088984681 0  -5.0625 1 0  5.286835586913878 -0.6616705837083201 0  -5.692815197359722 0.1186699900166531 0  5.663425996156958 -0.07763197815533956 0  -0.9219866027132193 -0.1143045829323572 0  -1.394333629759332 -0.2233077430199216 0  0.09322478991596644 -0.9616596638655462 0  5.0625 -1 0  -0.14412109375 -1.92169189453125 0  -4.28125 -0.7212148987671345 0  0.2649796277366407 0.1735162902120744 0  -4.907855692236596 0.1868230509619793 0  -1.9375 1 0  1 5.0625 0  0.6915124486819284 -5.272938212550202 0  0.683483242673902 5.284948082526911 0  2.5625 -1 0  -1 -3.8125 0  -1 1.9375 0  5.0625 1 0  -1 -1.9375 0  1 5.6875 0  1 -5.6875 0  -1.9375 -1 0  -1 -2.5625 0  -1 3.1875 0  1 -3.1875 0  1 -2.5625 0  1 2.5625 0  1 3.1875 0  -5.0625 -1 0  -1 -1.3125 0  1.3125 -1 0  -1 1.3125 0  -1 3.8125 0  -1 4.4375 0  -4.4375 1 0  4.4375 -1 0  4.4375 1 0  -1.3125 1 0  1 4.4375 0  1 -4.4375 0  -1 -5.0625 0  -1 -4.4375 0  -3.1875 1 0  2.5625 1 0  1 -1.9375 0  1 -1.3125 0  5.6875 1 0  1 3.8125 0  3.1875 1 0  -3.1875 -1 0  1 -5.0625 0  1.35138038998199 0.6675097549271188 0  -0.465625 0.986328125 0  1.435958105992309 0.2563920171199723 0  1.915914614192913 -0.145782394639918 0  -0.8764440609469509 -0.5746869313612541 0  5.355194559946098 0.01566259380337612 0  -5.69333042954964 -0.5242868300459975 0  1.78125 -0.7320750794491524 0  0.7320750794491525 -3.96875 0  -0.3959075548864684 5.166422468926435 0  -4.770522389068053 -0.2123670725088856 0  -4.714160156249999 -0.69234375 0  -4.273484403713342 -0.278160994327167 0  0.9642590244517505 0.08196089404241463 0  0.3500261717645397 -4.727285205957206 0  0.6740868006020392 -4.765147848348443 0  0.6797550207247084 -1.089747806381148 0  -5.186479934354063 0.3046329157552757 0  -5.263288238215326 -0.3369092276308425 0  -2.433484016245305 0.5442571297016638 0  0.1707808983307866 -3.82363304980935 0  -0.1554012991031027 3.867535742674252 0  4.855508096805579 -0.2283975605264581 0  3.644517238097614 0.5646428152488787 0  0.05699603874439441 -0.6452791208413911 0  -0.3550018917972689 -0.5695324323732931 0  0.6
[...]
<PointData  Vectors="u"> 
<DataArray  type="Float64"  Name="u"  NumberOfComponents="3" format="ascii">0.0000000000000000e+00 0.0000000000000000e+00 0.0000000000000000e+00  0.0000000000000000e+00 0.0000000000000000e+00 0.0000000000000000e+00  0.0000000000000000e+00 0.0000000000000000e+00 0.0000000000000000e+00  0.0000000000000000e+00 0.0000000000000000e+00 0.0000000000000000e+00  0.0000000000000000e+00 0.0000000000000000e+00 0.0000000000000000e+00  0.0000000000000000e+00 0.0000000000000000e+00 0.0000000000000000e+00  0.0000000000000000e+00 0.0000000000000000e+00 0.0000000000000000e+00  0.0000000000000000e+00 0.0000000000000000e+00 0.0000000000000000e+00  0.0000000000000000e+00 0.0000000000000000e+00 0.0000000000000000e+00  0.0000000000000000e+00 0.0000000000000000e+00 0.0000000000000000e+00  0.0000000000000000e+00 0.0000000000000000e+00 0.0000000000000000e+00  0.0000000000000000e+00 0.0000000000000000e+00 0.0000000000000000e+00  0.0000000000000000e+00 0.0000000000000000e+00 0.0000000000000000e+00  0.0000000000000000e+00 0.0000000000000000e+00 0.0000000000000000e+00  0.0000000000000000e+00 0.0000000000000000e+00 0.0000000000000000e+00  0.0000000000000000e+00 0.0000000000000000e+00 0.0000000000000000e+00  0.0000000000000000e+00 0.0000000000000000e+00 0.0000000000000000e+00  0.0000000000000000e+00 0.0000000000000000e+00 0.0000000000000000e+00  0.0000000000000000e+00 0.0000000000000000e+00 0.0000000000000000e+00  0.0000000000000000e+00 0.0000000000000000e+00 0.0000000000000000e+00  0.0000000000000000e+00 0.0000000000000000e+00 0.0000000000000000e+00  0.0000000000000000e+00 0.0000000000000000e+00 0.0000000000000000e+00  0.0000000000000000e+00 0.0000000000000000e+00 0.0000000000000000e+00  0.0000000000000000e+00 0.0000000000000000e+00 0.0000000000000000e+00  0.0000000000000000e+00 0.0000000000000000e+00 0.0000000000000000e+00  0.0000000000000000e+00 0.0000000000000000e+00 0.0000000000000000e+00  0.0000000000000000e+00 0.0000000000000000e+00 0.0000000000000000e+00  0.0000000000000000e+00 0.0000000000000000e+00 0.0000000000000000e+00  0.0000000000000000e+00 0.0000000000000000e+00 0.0000000000000000e+00  0.0000000000000000e+00 0.0000000000000000e+00 0.0000000000000000e+00  0.0000000000000000e+00 0.0000000000000000e+00 0.0000000000000000e+00  0.0000000000000000e+00 0.0000000000000000e+00 0.0000000000000000e+00  0.0000000000000000e+00 0.0000000000000000e+00 0.0000000000000000e+00  0.0000000000000000e+00 0.0000000000000000e+00 0.0000000000000000e+00  0.0000000000000000e+00 0.0000000000000000e+00 0.0000000000000000e+00  0.0000000000000000e+00 0.0000000000000000e+00 0.0000000000000000e+00  -1.8969314750934832e-04 8.2872360819255756e-05 0.0000000000000000e+00  4.0012999505724414e-02 -1.0257946472205245e-05 0.0000000000000000e+00  3.8156976861829471e-02 6.8119921435810075e-05 0.0000000000000000e+00  4.0054230928418998e-02 2.2073479001655743e-06 0.0000000000000000e+00  4.0090001046166161e-02 3.0802289160702762e-05 0.0000000000000000e+00  9.8885455458880910e-06 3.9987267597315905e-02 0.0000000000000000e+00  -3.9932706713015860e-02 3.8694108025798592e-05 0.0000000000000000e+00  3.2671452939597246e-05 3.9954265178795363e-02 0.0000000000000000e+00  -3.8238021613405032e-02 1.0623768046039053e-04 0.0000000000000000e+00  8.0465750142488714e-06 -3.9969197792187112e-02 0.0000000000000000e+00  -2.6326368779809030e-05 -3.8034309876752936e-02 0.0000000000000000e+00  3.5379312048368063e-05 3.7994675412645298e-02 0.0000000000000000e+00  3.3780760230939329e-05 3.9968159630768239e-02 0.0000000000000000e+00  3.3829813617586414e-05 -3.9968555158366045e-02 0.0000000000000000e+00  5.4029310483111728e-05 -4.0020826120177155e-02 0.0000000000000000e+00  -4.0066203849205007e-02 -1.1216233192714188e-05 0.0000000000000000e+00  -4.0020903549189489e-02 -3.7704452217807509e-05 0.0000000000000000e+00  -4.7748354031535971e-05 4.0068945653760624e-02 0.0000000000000000e+00  3.9999929033296515e-02 -4.6504898938510565e-05 0.0000000000000000e+00  -6.2630603140218205e-05 -3.9802517653791315e-02 0.0000000000000000e+00  -3.9911850791982610e-02 -4.7262244214525951e-05 0.0000000000000000e+00  -2.5823669764845330e-02 -5.4169905514284897e-03 0.0000000000000000e+00  5.1446950687709632e-03 -2.5356087247457540e-02 0.0000000000000000e+00  2.5274732320231256e-02 5.3703521690659263e-03 0.0000000000000000e+00  5.3869235081624991e-03 2.5397352672262216e-02 0.0000000000000000e+00  0.0000000000000000e+00 0.0000000000000000e+00 0.0000000000000000e+00  0.0000000000000000e+00 0.0000000000000000e+00 0.0000000000000000e+00  0.0000000000000000e+00 0.0000000000000000e+00 0.0000000000000000e+00  0.0000000000000000e+00 0.0000000000000000e+00 0.0000000000000000e+00  -1.7808323143539546e-02 1.4942477909378461e-02 0.0000000000000000e+00  0.0000000000000000e+00 0.0000000000000000e+00 0.0000000000000000e+00  0.0000000000000000e+00 0.0000000000000000e+00 0.0000000000000000e+00  0.0000000000000000e+00 0.0000000000000000e+00 0.0000000000000000e+00  5.9931239584226176e-05 -3.8134666757004367e-02 0.0000000000000000e+00  0.0000000000000000e+00 0.0000000000000000e+00 0.0000000000000000e+00  -3.9884964921999201e-02 -7.6098608865902756e-07 0.0000000000000000e+00  -3.9934563165429794e-02 5.5225245214344619e-05 0.0000000000000000e+00  -3.9833339983518928e-02 3.4399973061563837e-06 0.0000000000000000e+00  0.0000000000000000e+00 0.0000000000000000e+00 0.0000000000000000e+00  0.0000000000000000e+00 0.0000000000000000e+00 0.0000000000000000e+00  2.0079504624307813e-05 3.9923360168401027e-02 0.0000000000000000e+00  -8.5296284465686536e-06 3.9977471201797239e-02 0.0000000000000000e+00  0.0000000000000000e+00 0.0000000000000000e+00 0.0000000000000000e+00  0.0000000000000000e+00 0.0000000000000000e+00 0.0000000000000000e+00  1.9543944433687702e-04 3.9668759008580905e-02 0.0000000000000000e+00  -3.0715691739803270e-04 3.9795314369015053e-02 0.0000000000000000e+00  0.0000000000000000e+00 0.0000000000000000e+00 0.0000000000000000e+00  0.0000000000000000e+00 0.0000000000000000e+00 0.0000000000000000e+00  4.8195759871416639e-05 -3.9857811356445338e-02 0.0000000000000000e+00  1.3526434791419933e-05 -3.9960489466886365e-02 0.0000000000000000e+00  0.0000000000000000e+00 0.0000000000000000e+00 0.0000000000000000e+00  -1.7899579475134605e-04 -3.9814298325653183e-02 0.0000000000000000e+00  3.7647080523598922e-04 -3.9784783312992386e-02 0.0000000000000000e+00  0.0000000000000000e+00 0.0000000000000000e+00 0.0000000000000000e+00  0.0000000000000000e+00 0.0000000000000000e+00 0.0000000000000000e+00  0.0000000000000000e+00 0.0000000000000000e+00 0.0000000000000000e+00  0.0000000000000000e+00 0.0000000000000000e+00 0.0000000000000000e+00  0.0000000000000000e+00 0.0000000000000000e+00 0.0000000000000000e+00  0.0000000000000000e+00 0.0000000000000000e+00 0.0000000000000000e+00  -3.9617036919811492e-02 2.8120024130047266e-04 0.0000000000000000e+00  -3.9765192618298896e-02 -2.6817023972258280e-04 0.0000000000000000e+00  0.0000000000000000e+00 0.0000000000000000e+00 0.0000000000000000e+00  0.0000000000000000e+00 0.0000000000000000e+00 0.0000000000000000e+00  0.0000000000000000e+00 0.0000000000000000e+00 0.0000000000000000e+00  0.0000000000000000e+00 0.0000000000000000e+00 0.0000000000000000e+00  0.0000000000000000e+00 0.0000000000000000e+00 0.0000000000000000e+00  0.0000000000000000e+00 0.0000000000000000e+00 0.0000000000000000e+00  3.9692082284688325e-02 3.0557021961149806e-04 0.0000000000000000e+00  3.9784008644867579e-02 -2.3782714493129992e-04 0.0000000000000000e+00  0.0000000000000000e+00 0.0000000000000000e+00 0.0000000000000000e+00  0.0000000000000000e+00 0.0000000000000000e+00 0.0000000000000000e+00  0.0000000000000000e+00 0.0000000000000000e+00 0.0000000000000000e+00  3.9696247513557464e-02 6.7185304052920009e-05 0.0000000000000000e+00  3.9990471711823163e-02 1.9387557564332265e-05 0.0000000000000000e+00  0.0000000000000000e+00 0.0000000000000000e+00 0.0000000000000000e+00  0.0000000000000000e+00 0.0000000000000000e+00 0.0000000000000000e+00  -7.4324439106707597e-03 3.3480040638886398e-02 0.0000000000000000e+00  3.4516787028485492e-02 -7.3820928172864718e-03 0.0000000000000000e+00  -6.9289100628210955e-03 -3.4879301679845501e-02 0.0000000000000000e+00  -3.5269316891444948e-02 6.5766448344678633e-03 0.0000000000000000e+00  4.2344837788775054e-05 -3.7967632754976589e-02 0.0000000000000000e+00  -4.3771075895316964e-06 -3.9972636857367655e-02 0.0000000000000000e+00  -3.9899549559722150e-02 -4.9247569733601569e-05 0.0000000000000000e+00  1.4634748158395088e-06 3.9906433506591767e-02 0.0000000000000000e+00  5.0791506084525695e-05 3.9802565913921187e-02 0.0000000000000000e+00  1.6840002758293227e-02 -1.0542417458188158e-02 0.0000000000000000e+00  3.8376157197801693e-02 5.4524141317841843e-03 0.0000000000000000e+00  3.6169337885099368e-05 3.8110011827185999e-02 0.0000000000000000e+00  -1.0027150444773708e-02 -1.6743428430872911e-02 0.0000000000000000e+00  -3.9748945751618955e-02 9.3337106584599639e-09 0.0000000000000000e+00  -4.0002248788484740e-02 9.8978016754631336e-06 0.0000000000000000e+00  4.3119287154767356e-05 -3.9762885697947108e-02 0.0000000000000000e+00  4.0064191680258363e-02 5.9118868582197412e-06 0.0000000000000000e+00  3.9824303428390634e-02 4.5708789158310426e-05 0.0000000000000000e+00  4.0009852746842316e-02 6.0130723703734801e-06 0.0000000000000000e+00  3.7778439576881415e-02 -1.3719309751248187e-05 0.0000000000000000e+00  3.0734250150353828e-05 3.9716035545894375e-02 0.0000000000000000e+00  -3.7706964622707023e-05 3.9990662880579807e-02 0.0000000000000000e+00  -2.2441027218420650e-05 -3.9895672229172466e-02 0.0000000000000000e+00  6.0163424224836896e-03 3.9553639161456537e-02 0.0000000000000000e+00  -3.8816446398871600e-02 -5.6113874619912090e-03 0.0000000000000000e+00  5.4160941176664744e-03 -3.8414175870966842e-02 0.0000000000000000e+00  2.7549943988685031e-05 3.9920580795189162e-02 0.0000000000000000e+00  -1.9108791679250050e-05 -4.0047607479105983e-02 0.0000000000000000e+00  -4.0043460197102830e-02 -6.0750542022621474e-05 0.0000000000000000e+00  3.8082889885994980e-02 1.2033604717188799e-05 0.0000000000000000e+00  -3.9860655498418662e-02 -2.0927803216464543e-05 0.0000000000000000e+00  3.9898295175760330e-02 -3.5706130378727915e-05 0.0000000000000000e+00  -3.9956943561795563e-02 -1.0929951840557750e-04 0.0000000000000000e+00  5.0204082827134199e-06 -3.9809931759582542e-02 0.0000000000000000e+00  6.9051427611605836e-06 3.9812416274149026e-02 0.0000000000000000e+00  3.8595191410736890e-02 9.9128707948309828e-05 0.0000000000000000e+00  3.9718089755945193e-02 -2.1543175568159243e-03 0.0000000000000000e+00  3.9951292799706002e-02 6.3616389943634737e-06 0.0000000000000000e+00  7.2610393801461917e-06 3.9903217315538850e-02 0.0000000000000000e+00  -8.2831166281907901e-05 3.9775478392965045e-02 0.0000000000000000e+00  -3.9893257303224419e-02 -1.8175828272971376e-05 0.0000000000000000e+00  -3.9775864157108938e-02 2.1607215288320107e-03 0.0000000000000000e+00  -1.3551881283356735e-03 -3.9664781407393775e-02 0.0000000000000000e+00  3.0198170801470407e-06 -3.9801152480232901e-02 0.0000000000000000e+00  -1.5278052146759896e-03 3.9955338130690056e-02 0.0000000000000000e+00  -3.9879118283171033e-02 9.0885270229866812e-05 0.0000000000000000e+00  6.8647299730329120e-05 -3.9840340460140532e-02 0.0000000000000000e+00  3.9833966460162733e-02 4.4493060783152607e-06 0.0000000000000000e+00  -3.8401527031636809e-02 -2.5646847226031130e-05 0.0000000000000000e+00  3.9991096887167316e-02 -4.0350596765776159e-06 0.0000000000000000e+00  3.8210052723231712e-02 -1.4104389357750833e-04 0.0000000000000000e+00  -3.8219688382778935e-02 -2.9972814512329936e-04 0.0000000000000000e+00  3.3433018879787602e-05 3.9844296417051540e-02 0.0000000000000000e+00  6.3766794860631334e-05 -3.9822862145624340e-02 0.0000000000000000e+00  3.8059312908924114e-02 1.1304928493504254e-03 0.0000000000000000e+00  1.2252934930616676e-03 3.9389749198432647e-02 0.0000000000000000e+00  4.6904751690337406e-05 3.9990033242153979e-02 0.0000000000000000e+00  3.8547997436370905e-02 3.2067581154777598e-05 0.0000000000000000e+00  -4.0046274942480885e-02 -8.6351594344641926e-06 0.0000000000000000e+00  -3.5395441681909286e-02 7.1255945498666009e-05 0.0000000000000000e+00  4.7286906035915741e-05 3.4426647561742782e-02 0.0000000000000000e+00  -8.4716030491195391e-06 -4.0064073306667385e-02 0.0000000000000000e+00  -1.4352648460075584e-04 -3.4988799785491118e-02 0.0000000000000000e+00  4.0064011433758734e-02 -2.5618335329669317e-05 0.0000000000000000e+00  3.4815926884964002e-02 7.3633360063125140e-05 0.0000000000000000e+00  1.6339133292709682e-05 3.5658661392909276e-02 0.0000000000000000e+00  -3.9117878818771074e-02 2.3347076061872255e-04 0.0000000000000000e+00  -1.0495493936086271e-04 -3.5615079241486991e-02 0.0000000000000000e+00  1.5804510645744564e-04 3.5881800518311906e-02 0.0000000000000000e+00  -4.5885510156898664e-05 -3.5752202851556614e-02 0.0000000000000000e+00  1.1064578844832215e-02 1.0828973976155214e-02 0.0000000000000000e+00  2.1008649324014857e-02 2.4318978102963806e-02 0.0000000000000000e+00  -2.8136185018300254e-03 1.3880393158647331e-02 0.0000000000000000e+00  1.4645572833040413e-03 -3.9418520951993705e-02 0.0000000000000000e+00  -3.9318212174587135e-02 -1.3117038478583521e-03 0.0000000000000000e+00  -2.0138117165348427e-05 3.9770063224810151e-02 0.0000000000000000e+00  4.9410366612426526e-06 -3.9843651881310137e-02 0.0000000000000000e+00  0.0000000000000000e+00 0.0000000000000000e+00 0.0000000000000000e+00  0.0000000000000000e+00 0.0000000000000000e+00 0.0000000000000000e+00  1.7906414480035840e-03 -3.4072357284643542e-02 0.0000000000000000e+00  -3.4148904126551284e-02 -1.1544625154204249e-03 0.0000000000000000e+00  -1.2939044219072337e-02 -3.3511670225055299e-03 0.0000000000000000e+00  2.1281450173525566e-02 -2.7644531839630657e-02 0.0000000000000000e+00  -3.4341462336560095e-02 -1.6530785995822944e-02 0.0000000000000000e+00  3.4048714395681849e-02 9.2310280379530524e-04 0.0000000000000000e+00  2.8838379330692256e-04 3.3671136519096825e-02 0.0000000000000000e+00  3.4474074622766106e-03 -1.2810998722775049e-02 0.0000000000000000e+00  0.0000000000000000e+00 0.0000000000000000e+00 0.0000000000000000e+00  3.6154360091654042e-02 -5.7746636444210052e-04 0.0000000000000000e+00  -3.7597986250106239e-03 -3.9735553803481212e-02 0.0000000000000000e+00  0.0000000000000000e+00 0.0000000000000000e+00 0.0000000000000000e+00  1.5504647010092937e-04 -3.6019199829179248e-02 0.0000000000000000e+00  0.0000000000000000e+00 0.0000000000000000e+00 0.0000000000000000e+00  2.0507808613757497e-04 3.6628685034757656e-02 0.0000000000000000e+00  -3.6761256675693195e-02 -3.1136183378776817e-04 0.0000000000000000e+00  0.0000000000000000e+00 0.0000000000000000e+00 0.0000000000000000e+00  0.0000000000000000e+00 0.0000000000000000e+00 0.0000000000000000e+00  0.0000000000000000e+00 0.0000000000000000e+00 0.0000000000000000e+00  2.4782068978281075e-05 -3.9977695563493627e-02 0.0000000000000000e+00  -6.4680136945646620e-05 3.9903509639884399e-02 0.0000000000000000e+00  4.0021689031835762e-02 1.0649234831578178e-05 0.0000000000000000e+00  3.9467836189880715e-02 -5.8789001670151114e-04 0.0000000000000000e+00  -3.9874687055637556e-02 -3.3689428413657606e-05 0.0000000000000000e+00  2.7476420427174516e-05 -3.9915392589022512e-02 0.0000000000000000e+00  5.1628428877266337e-05 3.9911587595350261e-02 0.0000000000000000e+00  -4.0069770803834615e-02 7.1384005814847388e-06 0.0000000000000000e+00  3.5322863975362676e-02 1.4886853841742795e-06 0.0000000000000000e+00  0.0000000000000000e+00 0.0000000000000000e+00 0.0000000000000000e+00  0.0000000000000000e+00 0.0000000000000000e+00 0.0000000000000000e+00  7.7807316443778208e-04 -3.6849092542125809e-02 0.0000000000000000e+00  -1.9874808697105487e-04 3.6895910433469431e-02 0.0000000000000000e+00  0.0000000000000000e+00 0.0000000000000000e+00 0.0000000000000000e+00  -3.8762584684854121e-02 4.9084706273185214e-04 0.0000000000000000e+00  0.0000000000000000e+00 0.0000000000000000e+00 0.0000000000000000e+00  0.0000000000000000e+00 0.0000000000000000e+00 0.0000000000000000e+00  3.8780226308446041e-02 1.2986976546968101e-04 0.0000000000000000e+00  -3.8487243471362155e-02 -4.5937191061069239e-05 0.0000000000000000e+00  0.0000000000000000e+00 0.0000000000000000e+00 0.0000000000000000e+00  0.0000000000000000e+00 0.0000000000000000e+00 0.0000000000000000e+00  -1.8657544711626513e-02 -2.9261042003984120e-02 0.0000000000000000e+00  -4.7937418241657790e-05 -3.9831907193077304e-02 0.0000000000000000e+00  -3.9785852196572026e-02 1.0722490524909819e-04 0.0000000000000000e+00  3.9919432493118780e-02 -2.3514722204201833e-06 0.0000000000000000e+00  3.4663335343603604e-05 4.0013044873845265e-02 0.0000000000000000e+00  -3.6881842634268434e-02 -1.7692839977664405e-04 0.0000000000000000e+00  2.1339024878472436e-04 3.6555390738558277e-02 0.0000000000000000e+00  -5.2419871479213732e-05 3.6107100480848003e-02 0.0000000000000000e+00  1.2021871472874551e-04 -3.6309013507309022e-02 0.0000000000000000e+00  4.5307124127199830e-05 -3.9815498504359059e-02 0.0000000000000000e+00  0.0000000000000000e+00 0.0000000000000000e+00 0.0000000000000000e+00  4.8212067957741821e-06 -3.9782177334170388e-02 0.0000000000000000e+00  -2.0718309168414537e-02 4.1342260456759062e-03 0.0000000000000000e+00  -3.1108019679153449e-02 2.0895787447353181e-02 0.0000000000000000e+00  3.6102111525116651e-02 1.6810236673060822e-02 0.0000000000000000e+00  -2.7691699362489223e-03 -3.7664137894032064e-02 0.0000000000000000e+00  1.1213024268093265e-02 4.9188491335262776e-05 0.0000000000000000e+00  -3.7092055577111212e-02 -3.4829963921951455e-04 0.0000000000000000e+00  1.3689758486676462e-05 -3.7010473227310194e-02 0.0000000000000000e+00  -3.6749435770928721e-04 3.7064881191067892e-02 0.0000000000000000e+00  3.6719720018624329e-02 5.9745039084622825e-05 0.0000000000000000e+00  3.6903615866950595e-02 3.4778841853221938e-05 0.0000000000000000e+00  3.1862882170306529e-04 3.9438758496943574e-02 0.0000000000000000e+00  3.7150546238057719e-02 6.0894092104284570e-04 0.0000000000000000e+00  4.8843681774203410e-05 -3.9996383567277659e-02 0.0000000000000000e+00  3.4243262170131217e-05 4.0006745669134196e-02 0.0000000000000000e+00  3.9859233406990102e-02 3.2514200122131859e-05 0.0000000000000000e+00  -3.9970843426298842e-02 7.4923113023702364e-05 0.0000000000000000e+00  -3.6123044081978820e-02 3.1247872970611025e-04 0.0000000000000000e+00  -3.0986848184947496e-04 -3.9372598842295381e-02 0.0000000000000000e+00  -2.6431149027626591e-04 -3.5825164211886619e-02 0.0000000000000000e+00  -3.9389361509542281e-02 7.3543807959574562e-04 0.0000000000000000e+00  4.0038827945381709e-02 2.9872501952405447e-05 0.0000000000000000e+00  1.4728486984917539e-05 3.9967058585314907e-02 0.0000000000000000e+00  3.9389532988114713e-02 6.1285412620031910e-04 0.0000000000000000e+00  -4.7112774341635010e-03 2.4711197933901037e-02 0.0000000000000000e+00  0.0000000000000000e+00 0.0000000000000000e+00 0.0000000000000000e+00  0.0000000000000000e+00 0.0000000000000000e+00 0.0000000000000000e+00  0.0000000000000000e+00 0.0000000000000000e+00 0.0000000000000000e+00  -1.1988298049744251e-05 4.0024216883614148e-02 0.0000000000000000e+00  3.3791453028873518e-05 3.9858670178205366e-02 0.0000000000000000e+00  4.4586947417750565e-05 -3.9904826704182342e-02 0.0000000000000000e+00  -3.9843975687302829e-02 -4.7130188823994698e-07 0.0000000000000000e+00  0.0000000000000000e+00 0.0000000000000000e+00 0.0000000000000000e+00  -1.5067858641261929e-05 -3.9986571301601527e-02 0.0000000000000000e+00  0.0000000000000000e+00 0.0000000000000000e+00 0.0000000000000000e+00  -3.5830963795499153e-02 -3.1820398696969432e-05 0.0000000000000000e+00  -6.6123656772183761e-05 -3.9912283242532112e-02 0.0000000000000000e+00  -3.0608114885063917e-03 3.6847965501670944e-02 0.0000000000000000e+00  -4.8659852920383290e-03 3.8891994239634145e-02 0.0000000000000000e+00  -4.0057143563143112e-02 5.5603181089413018e-06 0.00