<?xml version="1.0"?>
<VTKFile type="UnstructuredGrid"  version="0.1"  >
<UnstructuredGrid>
<Piece  NumberOfPoints="778" NumberOfCells="1401">
<Points>
<DataArray  type="Float64"  NumberOfComponents="3"  format="ascii">1 -1 0  6 -1 0  6 1 0  1 1 0  1 6 0  -1 6 0  -1 1 0  -6 1 0  -6 -1 0  -1 -1 0  -1 -6 0  1 -6 0  1 3.5 0  -1 3.5 0  -1 -3.5 0  1 -3.5 0  3.5 -1 0  3.5 1 0  -3.5 -1 0  -3.5 1 0  -1 -2.25 0  1 -2.25 0  2.25 -1 0  2.25 1 0  -1 2.25 0  1 2.25 0  -1 4.75 0  1 4.75 0  -4.75 -1 0  -4.75 1 0  -2.25 1 0  -2.25 -1 0  1 -4.75 0  -1 -4.75 0  4.75 1 0  4.75 -1 0  0 0 0  -2.875 0 0  -1.625 0 0  -4.125 0 0  -6 0 0  0 2.875 0  2.875 0 0  0 6 0  1.625 0 0  0 -2.875 0  0 -1.625 0  0 1.625 0  0 4.125 0  0 -6 0  0 -4.125 0  4.125 0 0  6 0 0  -0.109375 5.0625 0  -5.0625 -0.109375 0  -0.109375 -5.0625 0  5.0625 0.109375 0  0.8125 -0.1875 0  -0.1875 -0.8125 0  -0.8125 0.1875 0  -0.1875 0.8125 0  1 5.375 0  -5.375 1 0  1 -5.375 0  5.375 -1 0  0.53515625 0.46484375 0  -5.375 -1 0  -1 5.375 0  -1 -5.375 0  -0.5 -6 0  5.375 1 0  6 0.5 0  3.5 0.3046875 0  3.43125 -0.34765625 0  2.875 -1 0  4.125 1 0  0.3046875 3.5 0  -0.34765625 3.56875 0  -1 4.125 0  1 4.125 0  -0.3046875 2.25 0  0.34765625 2.18125 0  1 1.625 0  -1 -1.625 0  -0.3046875 -3.5 0  0.34765625 -3.56875 0  1 -4.125 0  0.3046875 -2.25 0  -0.34765625 -2.18125 0  -1 -4.125 0  -1 -2.875 0  1 -2.875 0  1 -1.625 0  1.625 -1 0  1.625 1 0  2.25 0.3046875 0  2.18125 -0.34765625 0  4.125 -1 0  2.875 1 0  1 2.875 0  -1 1.625 0  -1 2.875 0  -4.125 -1 0  -2.25 0.3046875 0  -2.31875 -0.34765625 0  -2.875 -1 0  -1.625 1 0  -4.125 1 0  -3.5 0.3046875 0  -3.56875 -0.34765625 0  -1.625 -1 0  -2.875 1 0  0.380626321794301 1.06853329530276 0  -1.110819327731092 -0.3739495798319328 0  0.3739495798319328 -1.110819327731092 0  1.151210293219304 0.3991939332620648 0  -0.5 -4.4375 0  0.5 -4.4375 0  5.481553398058253 -0.3712833737864077 0  0.5 4.4375 0  0.5 6 0  -0.522503783594538 -0.3265648647465863 0  -1.3125 0.5 0  -0.5 6 0  0.3265648647465863 -0.522503783594538 0  4.4375 0.5 0  4.4375 -0.5 0  0.5 -6 0  -6 -0.5 0  -5.481553398058253 0.3712833737864077 0  -4.55 -0.4296875 0  -4.4375 0.5 0  -0.5 4.4375 0  0.4792930825242718 5.026881067961165 0  0.4792930825242718 -5.026881067961165 0  -0.5 1.3125 0  1.3125 -0.5 0  -0.5 -1.3125 0  0.25 5.518539952962044 0  0.2125133872612723 -5.500076563152851 0  4.969341874373811 -0.5152550785163683 0  -4.969341874373811 0.5152550785163683 0  3.927189744345589 -0.4712876597840069 0  -5.554036458333333 -0.25 0  5.554036458333333 0.25 0  -0.4690710616438356 -5.462756849315069 0  -0.4690710616438356 5.462756849315069 0  -6 0.5 0  -1.59556436210848 -0.5 0  -3.058421751829955 -0.5 0  -0.5 2.731982421875 0  0.5 2.691578248170045 0  2.691578248170045 -0.5 0  1.641211254104555 0.5 0  0.5 -1.768017578125 0  0.5 -3.058421751829955 0  0.5 1.699267578125 0  3.018017578125 0.5 0  -0.5 -3.018017578125 0  -2.731982421875 0.5 0  6 -0.5 0  -4.050017120925308 -0.5006099332648871 0  -3.940668202764977 0.5371363767281105 0  3.940668202764977 0.5371363767281105 0  0.4517449476047904 3.958458083832335 0  -0.4517449476047904 -3.958458083832335 0  -1.809331797235023 0.5371363767281105 0  -0.4517449476047904 1.791541916167665 0  -0.0546875 4.59375 0  -5.006445312499999 -0.58984375 0  4.605643203883496 -0.04725424757281554 0  4.90625 0.5546875 0  -0.5546875 4.90625 0  0.04725424757281554 -4.605643203883496 0  -0.586116118210531 -4.995821561900013 0  -4.603710222472543 0.04846236095466061 0  -3.1875 0.65234375 0  0.6163907621110913 3.147502300973589 0  2.5625 0.65234375 0  0.6163907621110913 -2.602497699026411 0  -0.637456713551384 3.189259902731882 0  -0.637456713551384 -2.560740097268118 0  -0.34765625 0.34765625 0  -0.639453125 0.708203125 0  0.089630126953125 0.437286376953125 0  -0.4238281249999999 -1.746875 0  1.746875 -0.4238281249999999 0  -0.4238281249999999 4.003125 0  0.4238281249999999 -4.003125 0  -2.5625 -1 0  3.1875 -1 0  -0.09375 -1.21875 0  1.21875 -0.09375 0  0.4020305405760241 -0.1120343241705621 0  -0.6280191027904287 -0.7577505545748082 0  0.90625 -0.59375 0  -1.205500904741459 0.03633725387965409 0  -0.02129048848213058 1.202028574265107 0  -0.1120343241705621 -0.4020305405760241 0  1 1.3125 0  -2.003587563743074 -0.6442361556699288 0  0.6640077663259718 -1.395873598614549 0  5.6875 -1 0  0.6308138580859101 -5.592151086468728 0  -5.6875 -1 0  0.6568032075915271 5.612942566073222 0  5.616530031741774 0.6612875396772174 0  -5.6875 1 0  1.9375 1 0  -1.3125 -1 0  0.1524679547155687 -3.232579139388032 0  0.1524679547155687 2.517420860611968 0  -3.232579139388032 -0.1524679547155687 0  -1.932320553757026 -0.252759244693845 0  2.517420860611968 -0.1524679547155687 0  -0.04776045819569434 -2.464949198504599 0  -0.2420369079104247 3.187693796852321 0  3.751304711039982 -0.1203080877045035 0  -5.397601941771943 -0.609026059866711 0  1.3125 1 0  1.9375 -1 0  -0.6946315101963667 -2.018229242739021 0  -0.6946315101963667 3.731770757260979 0  1 -3.8125 0  2.014364435550335 0.6166648446293641 0  -1 5.6875 0  -1 -5.6875 0  -2.653476149871182 -0.5942957192996303 0  3.096523850128818 -0.5942957192996303 0  1 1.9375 0  -3.8125 -1 0  0.586975531244212 -0.7975955463807081 0  -0.2946248980953088 -4.743710873809568 0  2.625453376770019 0.2814788818359375 0  -3.124546623229981 0.2814788818359375 0  -0.1204856417894853 5.631800603217465 0  5.253862011026742 0.6581468962876398 0  -0.65234375 2.108701557941197 0  0.65234375 3.641298442058803 0  -0.65234375 -3.641298442058803 0  -0.25 -5.744880569758637 0  -4.4375 -1 0  -0.3166212631734941 -2.713595940002554 0  0.6591479224207506 0.1324305912687024 0  0.8660781906552419 0.6468634238104103 0  -0.9887189158197679 0.6452930723873549 0  0.3149351927204296 -1.460971774996065 0  -0.3572852727880474 -0.009629022788047503 0  2.09375 -0.6866724363772454 0  0.6866724363772454 -3.65625 0  0.6866724363772454 2.09375 0  -3.65625 -0.6866724363772454 0  -3.5371337890625 0.65234375 0  -0.1389584113023952 1.944025352615082 0  -2.151744288472698 0.65234375 0  -0.1389584113023951 -3.805974647384918 0  0.1389584113023951 3.805974647384918 0  -2.578772109813904 0.1857224367977529 0  3.171227890186096 0.1857224367977529 0  3.360315647536819 0.65234375 0  0.1857224367977528 -1.921227890186096 0  0.65234375 -2.110315647536819 0  1.894016528727564 0.2415406141485869 0  -3.738232421875 0 0  0.2516875549238616 3.139069895099618 0  -1.913724396854074 0.2011142179916434 0  0.1669456568161915 0.7843410671359501 0  -2.5625 1 0  -1 -3.1875 0  -1 2.5625 0  0.1736601499778735 4.857955663330752 0  -0.1893536587212888 2.577300639071919 0  -0.1893536587212888 -3.172699360928081 0  3.852271904453858 0.206603749322895 0  -3.8125 1 0  -0.1250095034621793 -5.421707592768541 0  3.8125 -1 0  3.617304217264373 -0.6578427703661498 0  0.2630176195580202 -2.636558318495885 0  0.2674330357770522 1.399517071108871 0  0.631726413079416 1.339254523727593 0  4.700571879807737 0.2813704945051134 0  0.7143844363649634 -3.319538455208831 0  2.430461544791169 -0.7143844363649634 0  0.7143844363649634 2.430461544791169 0  -3.319538455208831 -0.7143844363649634 0  5.687045771608623 -0.6520598572553891 0  -5.687045771608623 0.6520598572553891 0  -1.15625 -0.7048248829733235 0  3.438284572973296 -0.01860298867862281 0  -0.03021088078697859 3.451572359862192 0  2.216682837011589 -0.02159585961918548 0  -2.191580885932936 -0.03126387444658879 0  0.1857410764408683 1.895679405349457 0  3.103473238297955 -0.253270943723272 0  -2.646526761702045 -0.253270943723272 0  -2.333137350671861 -0.6791984914172315 0  -1 5.0625 0  -0.6971235589909319 5.213002544375844 0  0.01618705363819947 2.225929180591695 0  0.01618705363819947 -3.524070819408305 0  0.5690054882403073 0.7951310720450595 0  -0.5764940424412852 -3.329579265180942 0  -0.5764940424412852 2.420420734819058 0  3.8125 1 0  -5.372163860234628 0.04365139563106807 0  5.164108319316826 -0.225040894204947 0  -5.361952437854323 0.6744012088984681 0  -5.0625 1 0  5.286835586913878 -0.6616705837083201 0  -5.692815197359722 0.1186699900166531 0  5.663425996156958 -0.07763197815533956 0  -0.9219866027132193 -0.1143045829323572 0  -1.394333629759332 -0.2233077430199216 0  0.09322478991596644 -0.9616596638655462 0  5.0625 -1 0  -0.14412109375 -1.92169189453125 0  -4.28125 -0.7212148987671345 0  0.2649796277366407 0.1735162902120744 0  -4.907855692236596 0.1868230509619793 0  -1.9375 1 0  1 5.0625 0  0.6915124486819284 -5.272938212550202 0  0.683483242673902 5.284948082526911 0  2.5625 -1 0  -1 -3.8125 0  -1 1.9375 0  5.0625 1 0  -1 -1.9375 0  1 5.6875 0  1 -5.6875 0  -1.9375 -1 0  -1 -2.5625 0  -1 3.1875 0  1 -3.1875 0  1 -2.5625 0  1 2.5625 0  1 3.1875 0  -5.0625 -1 0  -1 -1.3125 0  1.3125 -1 0  -1 1.3125 0  -1 3.8125 0  -1 4.4375 0  -4.4375 1 0  4.4375 -1 0  4.4375 1 0  -1.3125 1 0  1 4.4375 0  1 -4.4375 0  -1 -5.0625 0  -1 -4.4375 0  -3.1875 1 0  2.5625 1 0  1 -1.9375 0  1 -1.3125 0  5.6875 1 0  1 3.8125 0  3.1875 1 0  -3.1875 -1 0  1 -5.0625 0  1.35138038998199 0.6675097549271188 0  -0.465625 0.986328125 0  1.435958105992309 0.2563920171199723 0  1.915914614192913 -0.145782394639918 0  -0.8764440609469509 -0.5746869313612541 0  5.355194559946098 0.01566259380337612 0  -5.69333042954964 -0.5242868300459975 0  1.78125 -0.7320750794491524 0  0.7320750794491525 -3.96875 0  -0.3959075548864684 5.166422468926435 0  -4.770522389068053 -0.2123670725088856 0  -4.714160156249999 -0.69234375 0  -4.273484403713342 -0.278160994327167 0  0.9642590244517505 0.08196089404241463 0  0.3500261717645397 -4.727285205957206 0  0.6740868006020392 -4.765147848348443 0  0.6797550207247084 -1.089747806381148 0  -5.186479934354063 0.3046329157552757 0  -5.263288238215326 -0.3369092276308425 0  -2.433484016245305 0.5442571297016638 0  0.1707808983307866 -3.82363304980935 0  -0.1554012991031027 3.867535742674252 0  4.855508096805579 -0.2283975605264581 0  3.644517238097614 0.5646428152488787 0  0.05699603874439441 -0.6452791208413911 0  -0.3550018917972689 -0.5695324323732931 0  0.6
[...]
<PointData  Vectors="u"> 
<DataArray  type="Float64"  Name="u"  NumberOfComponents="3" format="ascii">0.0000000000000000e+00 0.0000000000000000e+00 0.0000000000000000e+00  0.0000000000000000e+00 0.0000000000000000e+00 0.0000000000000000e+00  0.0000000000000000e+00 0.0000000000000000e+00 0.0000000000000000e+00  0.0000000000000000e+00 0.0000000000000000e+00 0.0000000000000000e+00  0.0000000000000000e+00 0.0000000000000000e+00 0.0000000000000000e+00  0.0000000000000000e+00 0.0000000000000000e+00 0.0000000000000000e+00  0.0000000000000000e+00 0.0000000000000000e+00 0.0000000000000000e+00  0.0000000000000000e+00 0.0000000000000000e+00 0.0000000000000000e+00  0.0000000000000000e+00 0.0000000000000000e+00 0.0000000000000000e+00  0.0000000000000000e+00 0.0000000000000000e+00 0.0000000000000000e+00  0.0000000000000000e+00 0.0000000000000000e+00 0.0000000000000000e+00  0.0000000000000000e+00 0.0000000000000000e+00 0.0000000000000000e+00  0.0000000000000000e+00 0.0000000000000000e+00 0.0000000000000000e+00  0.0000000000000000e+00 0.0000000000000000e+00 0.0000000000000000e+00  0.0000000000000000e+00 0.0000000000000000e+00 0.0000000000000000e+00  0.0000000000000000e+00 0.0000000000000000e+00 0.0000000000000000e+00  0.0000000000000000e+00 0.0000000000000000e+00 0.0000000000000000e+00  0.0000000000000000e+00 0.0000000000000000e+00 0.0000000000000000e+00  0.0000000000000000e+00 0.0000000000000000e+00 0.0000000000000000e+00  0.0000000000000000e+00 0.0000000000000000e+00 0.0000000000000000e+00  0.0000000000000000e+00 0.0000000000000000e+00 0.0000000000000000e+00  0.0000000000000000e+00 0.0000000000000000e+00 0.0000000000000000e+00  0.0000000000000000e+00 0.0000000000000000e+00 0.0000000000000000e+00  0.0000000000000000e+00 0.0000000000000000e+00 0.0000000000000000e+00  0.0000000000000000e+00 0.0000000000000000e+00 0.0000000000000000e+00  0.0000000000000000e+00 0.0000000000000000e+00 0.0000000000000000e+00  0.0000000000000000e+00 0.0000000000000000e+00 0.0000000000000000e+00  0.0000000000000000e+00 0.0000000000000000e+00 0.0000000000000000e+00  0.0000000000000000e+00 0.0000000000000000e+00 0.0000000000000000e+00  0.0000000000000000e+00 0.0000000000000000e+00 0.0000000000000000e+00  0.0000000000000000e+00 0.0000000000000000e+00 0.0000000000000000e+00  0.0000000000000000e+00 0.0000000000000000e+00 0.0000000000000000e+00  0.0000000000000000e+00 0.0000000000000000e+00 0.0000000000000000e+00  0.0000000000000000e+00 0.0000000000000000e+00 0.0000000000000000e+00  0.0000000000000000e+00 0.0000000000000000e+00 0.0000000000000000e+00  0.0000000000000000e+00 0.0000000000000000e+00 0.0000000000000000e+00  -2.0197071960151758e-04 9.7015728247243141e-05 0.0000000000000000e+00  4.8555100057207062e-02 -1.1343569604287448e-05 0.0000000000000000e+00  4.6358087635538732e-02 6.6126951722463056e-05 0.0000000000000000e+00  4.8610699906885949e-02 3.3474889010693517e-06 0.0000000000000000e+00  4.8658061845815427e-02 3.5104427044457516e-05 0.0000000000000000e+00  1.1937737002384571e-05 4.8537907570209267e-02 0.0000000000000000e+00  -4.8467217622388155e-02 4.3144386543017815e-05 0.0000000000000000e+00  3.7530966446336779e-05 4.8483467806780291e-02 0.0000000000000000e+00  -4.6452777882723791e-02 1.1649483881290524e-04 0.0000000000000000e+00  7.5178081536028330e-06 -4.8508822409382292e-02 0.0000000000000000e+00  -1.9409555909334153e-05 -4.6260530815203961e-02 0.0000000000000000e+00  4.0245275925991784e-05 4.6206064402022434e-02 0.0000000000000000e+00  3.6383367045913879e-05 4.8503445914326211e-02 0.0000000000000000e+00  3.8857893530733057e-05 -4.8501112083366958e-02 0.0000000000000000e+00  6.3879657507271505e-05 -4.8565288192529241e-02 0.0000000000000000e+00  -4.8621394384545588e-02 -1.5986830679234917e-05 0.0000000000000000e+00  -4.8581085939640896e-02 -4.4723249868382805e-05 0.0000000000000000e+00  -5.9578209085024675e-05 4.8622466657591006e-02 0.0000000000000000e+00  4.8558172636089421e-02 -6.1277881205276246e-05 0.0000000000000000e+00  -7.5710069292706317e-05 -4.8356274410350807e-02 0.0000000000000000e+00  -4.8472801373266400e-02 -5.8612962476618614e-05 0.0000000000000000e+00  -3.1415636392552584e-02 -6.5365680254165131e-03 0.0000000000000000e+00  6.2933363474265104e-03 -3.0927848910653696e-02 0.0000000000000000e+00  3.0830580592106731e-02 6.4595843201771062e-03 0.0000000000000000e+00  6.5275786467258344e-03 3.0978896962958812e-02 0.0000000000000000e+00  0.0000000000000000e+00 0.0000000000000000e+00 0.0000000000000000e+00  0.0000000000000000e+00 0.0000000000000000e+00 0.0000000000000000e+00  0.0000000000000000e+00 0.0000000000000000e+00 0.0000000000000000e+00  0.0000000000000000e+00 0.0000000000000000e+00 0.0000000000000000e+00  -2.1656499075958489e-02 1.8236419401276384e-02 0.0000000000000000e+00  0.0000000000000000e+00 0.0000000000000000e+00 0.0000000000000000e+00  0.0000000000000000e+00 0.0000000000000000e+00 0.0000000000000000e+00  0.0000000000000000e+00 0.0000000000000000e+00 0.0000000000000000e+00  6.1442368623091184e-05 -4.6282476873394401e-02 0.0000000000000000e+00  0.0000000000000000e+00 0.0000000000000000e+00 0.0000000000000000e+00  -4.8384247494661220e-02 -3.7275615193639452e-07 0.0000000000000000e+00  -4.8597686943122199e-02 6.0279482842742300e-05 0.0000000000000000e+00  -4.8481565845679642e-02 1.2633860561224636e-05 0.0000000000000000e+00  0.0000000000000000e+00 0.0000000000000000e+00 0.0000000000000000e+00  0.0000000000000000e+00 0.0000000000000000e+00 0.0000000000000000e+00  2.6557936190342137e-05 4.8487226877014455e-02 0.0000000000000000e+00  -6.0675902382432946e-06 4.8576391498227359e-02 0.0000000000000000e+00  0.0000000000000000e+00 0.0000000000000000e+00 0.0000000000000000e+00  0.0000000000000000e+00 0.0000000000000000e+00 0.0000000000000000e+00  2.3445533204539623e-04 4.8244550738473869e-02 0.0000000000000000e+00  -3.5613457122239878e-04 4.8339663637320687e-02 0.0000000000000000e+00  0.0000000000000000e+00 0.0000000000000000e+00 0.0000000000000000e+00  0.0000000000000000e+00 0.0000000000000000e+00 0.0000000000000000e+00  4.6597887482764234e-05 -4.8454720082752895e-02 0.0000000000000000e+00  1.5888113426603645e-05 -4.8527067780966784e-02 0.0000000000000000e+00  0.0000000000000000e+00 0.0000000000000000e+00 0.0000000000000000e+00  -2.1151013510574765e-04 -4.8326955714377007e-02 0.0000000000000000e+00  4.3917563080351124e-04 -4.8364447522083194e-02 0.0000000000000000e+00  0.0000000000000000e+00 0.0000000000000000e+00 0.0000000000000000e+00  0.0000000000000000e+00 0.0000000000000000e+00 0.0000000000000000e+00  0.0000000000000000e+00 0.0000000000000000e+00 0.0000000000000000e+00  0.0000000000000000e+00 0.0000000000000000e+00 0.0000000000000000e+00  0.0000000000000000e+00 0.0000000000000000e+00 0.0000000000000000e+00  0.0000000000000000e+00 0.0000000000000000e+00 0.0000000000000000e+00  -4.8218873820926281e-02 3.2096709886703822e-04 0.0000000000000000e+00  -4.8300953992744318e-02 -3.1754770282736993e-04 0.0000000000000000e+00  0.0000000000000000e+00 0.0000000000000000e+00 0.0000000000000000e+00  0.0000000000000000e+00 0.0000000000000000e+00 0.0000000000000000e+00  0.0000000000000000e+00 0.0000000000000000e+00 0.0000000000000000e+00  0.0000000000000000e+00 0.0000000000000000e+00 0.0000000000000000e+00  0.0000000000000000e+00 0.0000000000000000e+00 0.0000000000000000e+00  0.0000000000000000e+00 0.0000000000000000e+00 0.0000000000000000e+00  4.8336740016037827e-02 3.4035845864631995e-04 0.0000000000000000e+00  4.8425999655474568e-02 -2.9000040723956943e-04 0.0000000000000000e+00  0.0000000000000000e+00 0.0000000000000000e+00 0.0000000000000000e+00  0.0000000000000000e+00 0.0000000000000000e+00 0.0000000000000000e+00  0.0000000000000000e+00 0.0000000000000000e+00 0.0000000000000000e+00  4.8319782270624320e-02 8.2300283532483077e-05 0.0000000000000000e+00  4.8562462679775577e-02 2.3022777582489951e-05 0.0000000000000000e+00  0.0000000000000000e+00 0.0000000000000000e+00 0.0000000000000000e+00  0.0000000000000000e+00 0.0000000000000000e+00 0.0000000000000000e+00  -9.0239711673450584e-03 4.0860575086948181e-02 0.0000000000000000e+00  4.2074033753647801e-02 -8.8736237217987620e-03 0.0000000000000000e+00  -8.4134940809492947e-03 -4.2487731214366074e-02 0.0000000000000000e+00  -4.2988981211128582e-02 7.9503278398388496e-03 0.0000000000000000e+00  4.1936638837205317e-05 -4.6157309402232352e-02 0.0000000000000000e+00  -2.5474170872136372e-06 -4.8558835681169102e-02 0.0000000000000000e+00  -4.8544887041319512e-02 -6.4078348374489838e-05 0.0000000000000000e+00  2.8535029921210856e-06 4.8473265749606559e-02 0.0000000000000000e+00  4.8064435120361141e-05 4.8414684727783486e-02 0.0000000000000000e+00  2.0505693199422283e-02 -1.2821387297567075e-02 0.0000000000000000e+00  4.6766096086325870e-02 6.5896872006817753e-03 0.0000000000000000e+00  3.0292616093344527e-05 4.6266954007767661e-02 0.0000000000000000e+00  -1.2285180103798978e-02 -2.0443752153911806e-02 0.0000000000000000e+00  -4.8392120487554299e-02 -2.1238391244900991e-05 0.0000000000000000e+00  -4.8589844258007830e-02 8.5982049222648629e-06 0.0000000000000000e+00  3.4898491452663026e-05 -4.8396256505750301e-02 0.0000000000000000e+00  4.8662434984562332e-02 1.9304236153486743e-06 0.0000000000000000e+00  4.8457134496484540e-02 5.1888327941293901e-05 0.0000000000000000e+00  4.8637864432179177e-02 6.2091361874628405e-06 0.0000000000000000e+00  4.5970204926848612e-02 -1.4898056077582291e-05 0.0000000000000000e+00  2.4489072360781282e-05 4.8297650345361175e-02 0.0000000000000000e+00  -3.7320422878494180e-05 4.8587647188270890e-02 0.0000000000000000e+00  -2.7914794909591856e-05 -4.8506957266154102e-02 0.0000000000000000e+00  7.1400871549387873e-03 4.8097372740436101e-02 0.0000000000000000e+00  -4.7278857731592856e-02 -6.6581555149716129e-03 0.0000000000000000e+00  6.5791298109768095e-03 -4.6812920874955699e-02 0.0000000000000000e+00  3.1892546442448493e-05 4.8482141729834866e-02 0.0000000000000000e+00  -2.3416804689281159e-05 -4.8593425981696074e-02 0.0000000000000000e+00  -4.8639933774169808e-02 -6.2141620183909612e-05 0.0000000000000000e+00  4.6429687428313271e-02 6.9792114123566486e-06 0.0000000000000000e+00  -4.8478984089868456e-02 -2.6057492294513285e-05 0.0000000000000000e+00  4.8528887668135325e-02 -5.7512941138011003e-05 0.0000000000000000e+00  -4.8527842610221472e-02 -1.3097969603208262e-04 0.0000000000000000e+00  3.8934787787660066e-06 -4.8388532043372734e-02 0.0000000000000000e+00  1.1880254945171560e-05 4.8417426916159148e-02 0.0000000000000000e+00  4.6973291747249492e-02 1.1240434748948265e-04 0.0000000000000000e+00  4.8286346225960987e-02 -2.5637645286885904e-03 0.0000000000000000e+00  4.8564043708045873e-02 1.1962196121872686e-05 0.0000000000000000e+00  -7.6029332746106628e-08 4.8509634854299245e-02 0.0000000000000000e+00  -9.1099731833949455e-05 4.8383416125602957e-02 0.0000000000000000e+00  -4.8497202906460944e-02 -2.4245727374563886e-05 0.0000000000000000e+00  -4.8362419629763891e-02 2.5456791657975830e-03 0.0000000000000000e+00  -1.5467893028174922e-03 -4.8191042369607535e-02 0.0000000000000000e+00  -5.6260588950763463e-06 -4.8430027015997447e-02 0.0000000000000000e+00  -1.7718185665497705e-03 4.8526396776782436e-02 0.0000000000000000e+00  -4.8420604983423647e-02 9.8190779089813178e-05 0.0000000000000000e+00  9.0177918177083695e-05 -4.8429823722540184e-02 0.0000000000000000e+00  4.8486264962706284e-02 3.6078555629937494e-06 0.0000000000000000e+00  -4.6808115564664396e-02 -4.1548516518206057e-05 0.0000000000000000e+00  4.8571128466303043e-02 -4.1981616759227118e-06 0.0000000000000000e+00  4.6550709977153999e-02 -1.6873116635118362e-04 0.0000000000000000e+00  -4.6546527006513704e-02 -3.6011495415393211e-04 0.0000000000000000e+00  3.1790064132461574e-05 4.8459062441051727e-02 0.0000000000000000e+00  7.6133171333673768e-05 -4.8452235674715204e-02 0.0000000000000000e+00  4.6316071005253652e-02 1.3358742974850085e-03 0.0000000000000000e+00  1.4297656437333077e-03 4.7899277729449796e-02 0.0000000000000000e+00  5.3996845273885143e-05 4.8535895354460366e-02 0.0000000000000000e+00  4.6974660895447655e-02 6.1785454189380393e-05 0.0000000000000000e+00  -4.8601257629302175e-02 -8.5385000913743836e-06 0.0000000000000000e+00  -4.3544737794720477e-02 7.9455506720772578e-05 0.0000000000000000e+00  6.0137713020370438e-05 4.2512580763495462e-02 0.0000000000000000e+00  -1.1145450481610149e-05 -4.8623085220303307e-02 0.0000000000000000e+00  -1.8364320710630513e-04 -4.3131612787581257e-02 0.0000000000000000e+00  4.8628348061388896e-02 -3.3634836711609818e-05 0.0000000000000000e+00  4.3084215263887900e-02 9.9470659535434548e-05 0.0000000000000000e+00  2.7938992169772216e-05 4.3931221555083742e-02 0.0000000000000000e+00  -4.7678243980544079e-02 2.7083674128673170e-04 0.0000000000000000e+00  -1.5138457179362966e-04 -4.3868205010405482e-02 0.0000000000000000e+00  2.0342157626620770e-04 4.4308593252205278e-02 0.0000000000000000e+00  -7.2317405075964029e-05 -4.4322106894030357e-02 0.0000000000000000e+00  1.3500678827717341e-02 1.3267949845459105e-02 0.0000000000000000e+00  2.5729085355537022e-02 2.9689645324591001e-02 0.0000000000000000e+00  -3.4605319680879746e-03 1.6930300386354562e-02 0.0000000000000000e+00  1.7190398658938186e-03 -4.7935909395003654e-02 0.0000000000000000e+00  -4.7799542705453495e-02 -1.5500176810356778e-03 0.0000000000000000e+00  -2.2845791869774948e-05 4.8376688259063529e-02 0.0000000000000000e+00  9.6582307466911387e-07 -4.8464140526148419e-02 0.0000000000000000e+00  0.0000000000000000e+00 0.0000000000000000e+00 0.0000000000000000e+00  0.0000000000000000e+00 0.0000000000000000e+00 0.0000000000000000e+00  2.1518412344043438e-03 -4.1517296738738087e-02 0.0000000000000000e+00  -4.1542334945020860e-02 -1.4417041013698056e-03 0.0000000000000000e+00  -1.5772001074335230e-02 -4.1100326613245650e-03 0.0000000000000000e+00  2.5794560697394473e-02 -3.3671363115277200e-02 0.0000000000000000e+00  -4.1888654054650885e-02 -1.9920512994885613e-02 0.0000000000000000e+00  4.1388455667870333e-02 1.0692773479835805e-03 0.0000000000000000e+00  3.8452224565105531e-04 4.0988690487829084e-02 0.0000000000000000e+00  4.2243576812242192e-03 -1.5615685173347599e-02 0.0000000000000000e+00  0.0000000000000000e+00 0.0000000000000000e+00 0.0000000000000000e+00  4.4590697785648808e-02 -6.9805402854736470e-04 0.0000000000000000e+00  -4.1924676921331408e-03 -4.8372797582565796e-02 0.0000000000000000e+00  0.0000000000000000e+00 0.0000000000000000e+00 0.0000000000000000e+00  1.9008836640804482e-04 -4.4494360236956465e-02 0.0000000000000000e+00  0.0000000000000000e+00 0.0000000000000000e+00 0.0000000000000000e+00  2.5591409597140957e-04 4.5132297992270094e-02 0.0000000000000000e+00  -4.5284084880974747e-02 -3.8815804612176065e-04 0.0000000000000000e+00  0.0000000000000000e+00 0.0000000000000000e+00 0.0000000000000000e+00  0.0000000000000000e+00 0.0000000000000000e+00 0.0000000000000000e+00  0.0000000000000000e+00 0.0000000000000000e+00 0.0000000000000000e+00  3.0934418175259996e-05 -4.8524037117173124e-02 0.0000000000000000e+00  -7.3356784147161680e-05 4.8440868988934613e-02 0.0000000000000000e+00  4.8570045514873955e-02 1.3259954771954413e-05 0.0000000000000000e+00  4.7960921763208951e-02 -6.9162671648325758e-04 0.0000000000000000e+00  -4.8399872152750205e-02 -3.8620298706693528e-05 0.0000000000000000e+00  3.2676419532527577e-05 -4.8456205589634142e-02 0.0000000000000000e+00  6.6313768064323446e-05 4.8516582132134917e-02 0.0000000000000000e+00  -4.8635425818961867e-02 8.1058503940273245e-06 0.0000000000000000e+00  4.3746780044758696e-02 2.6813737933215070e-06 0.0000000000000000e+00  0.0000000000000000e+00 0.0000000000000000e+00 0.0000000000000000e+00  0.0000000000000000e+00 0.0000000000000000e+00 0.0000000000000000e+00  9.1118830045060955e-04 -4.5454195008349081e-02 0.0000000000000000e+00  -2.4857029272061786e-04 4.5560307119626303e-02 0.0000000000000000e+00  0.0000000000000000e+00 0.0000000000000000e+00 0.0000000000000000e+00  -4.7244651301602145e-02 5.6670060698502881e-04 0.0000000000000000e+00  0.0000000000000000e+00 0.0000000000000000e+00 0.0000000000000000e+00  0.0000000000000000e+00 0.0000000000000000e+00 0.0000000000000000e+00  4.7187460971379019e-02 1.6968749785460188e-04 0.0000000000000000e+00  -4.6837620312338339e-02 -5.1492746116189307e-05 0.0000000000000000e+00  0.0000000000000000e+00 0.0000000000000000e+00 0.0000000000000000e+00  0.0000000000000000e+00 0.0000000000000000e+00 0.0000000000000000e+00  -2.2692939658787398e-02 -3.5673725891934398e-02 0.0000000000000000e+00  -6.8416649863028452e-05 -4.8499010399695779e-02 0.0000000000000000e+00  -4.8363059106581008e-02 1.1597769534141372e-04 0.0000000000000000e+00  4.8497365375293318e-02 -7.2797821003024780e-06 0.0000000000000000e+00  4.2943131893283301e-05 4.8558201444176122e-02 0.0000000000000000e+00  -4.5553618442473819e-02 -2.0832630323414179e-04 0.0000000000000000e+00  2.4926452683720680e-04 4.5223903354844074e-02 0.0000000000000000e+00  -8.6615836050747685e-05 4.4546764289544787e-02 0.0000000000000000e+00  1.5086760482876853e-04 -4.4903389738737261e-02 0.0000000000000000e+00  5.6541978945874829e-05 -4.8412657583846018e-02 0.0000000000000000e+00  0.0000000000000000e+00 0.0000000000000000e+00 0.0000000000000000e+00  5.5042384971302719e-06 -4.8405627389756470e-02 0.0000000000000000e+00  -2.5314549802280938e-02 4.9915493092392484e-03 0.0000000000000000e+00  -3.7904240933247575e-02 2.5390285803470518e-02 0.0000000000000000e+00  4.4054752778361218e-02 2.0389215359361269e-02 0.0000000000000000e+00  -3.2664562064239760e-03 -4.5811320863460347e-02 0.0000000000000000e+00  1.3704797178810766e-02 -2.4550733789344724e-05 0.0000000000000000e+00  -4.5689909942964478e-02 -4.0787638948096809e-04 0.0000000000000000e+00  1.6385356658274783e-05 -4.5552235871680717e-02 0.0000000000000000e+00  -4.2989700884985601e-04 4.5660474417127714e-02 0.0000000000000000e+00  4.5264721713479346e-02 8.0188842418358079e-05 0.0000000000000000e+00  4.5629325398967573e-02 5.9983246286670703e-05 0.0000000000000000e+00  3.7908717426800374e-04 4.7895991242820013e-02 0.0000000000000000e+00  4.6006846244857680e-02 7.0202822315534939e-04 0.0000000000000000e+00  5.4612143667599490e-05 -4.8542472237498246e-02 0.0000000000000000e+00  3.9771791559814408e-05 4.8554035934897218e-02 0.0000000000000000e+00  4.8423728186887977e-02 3.1354802137443590e-05 0.0000000000000000e+00  -4.8503217643934539e-02 9.1398594232630626e-05 0.0000000000000000e+00  -4.4747396748554762e-02 3.9721089571201042e-04 0.0000000000000000e+00  -3.7243395180220468e-04 -4.7809582238938442e-02 0.0000000000000000e+00  -2.9803270537331406e-04 -4.4366485787294886e-02 0.0000000000000000e+00  -4.7847123034289667e-02 8.5453935342797067e-04 0.0000000000000000e+00  4.8594438415722543e-02 3.4071350256609455e-05 0.0000000000000000e+00  1.9227558571454963e-05 4.8546875570979364e-02 0.0000000000000000e+00  4.7839970759680404e-02 7.1479710805717538e-04 0.0000000000000000e+00  -5.7599380104125788e-03 3.0113866506489163e-02 0.0000000000000000e+00  0.0000000000000000e+00 0.0000000000000000e+00 0.0000000000000000e+00  0.0000000000000000e+00 0.0000000000000000e+00 0.0000000000000000e+00  0.0000000000000000e+00 0.0000000000000000e+00 0.0000000000000000e+00  -1.3085664879585053e-05 4.8569142525864480e-02 0.0000000000000000e+00  4.0311997101824448e-05 4.8393760768325578e-02 0.0000000000000000e+00  5.1868711274173964e-05 -4.8437915075717028e-02 0.0000000000000000e+00  -4.8448651640592984e-02 1.0003921899037272e-05 0.0000000000000000e+00  0.0000000000000000e+00 0.0000000000000000e+00 0.0000000000000000e+00  -2.1252059115420190e-05 -4.8526201845589659e-02 0.0000000000000000e+00  0.0000000000000000e+00 0.0000000000000000e+00 0.0000000000000000e+00  -4.4278014501576916e-02 -2.7490523880702094e-05 0.0000000000000000e+00  -7.4916926283479795e-05 -4.8475736254716059e-02 0.0000000000000000e+00  -3.6102613292062890e-03 4.4870988050798366e-02 0.0000000000000000e+00  -5.5186542444317279e-03 4.7273542333436933e-02 0.0000000000000000e+00  -4.8650762408429950e-02 6.5066243216702158e-06 0