<?xml version="1.0"?>
<VTKFile type="UnstructuredGrid"  version="0.1"  >
<UnstructuredGrid>
<Piece  NumberOfPoints="778" NumberOfCells="1401">
<Points>
<DataArray  type="Float64"  NumberOfComponents="3"  format="ascii">1 -1 0  6 -1 0  6 1 0  1 1 0  1 6 0  -1 6 0  -1 1 0  -6 1 0  -6 -1 0  -1 -1 0  -1 -6 0  1 -6 0  1 3.5 0  -1 3.5 0  -1 -3.5 0  1 -3.5 0  3.5 -1 0  3.5 1 0  -3.5 -1 0  -3.5 1 0  -1 -2.25 0  1 -2.25 0  2.25 -1 0  2.25 1 0  -1 2.25 0  1 2.25 0  -1 4.75 0  1 4.75 0  -4.75 -1 0  -4.75 1 0  -2.25 1 0  -2.25 -1 0  1 -4.75 0  -1 -4.75 0  4.75 1 0  4.75 -1 0  0 0 0  -2.875 0 0  -1.625 0 0  -4.125 0 0  -6 0 0  0 2.875 0  2.875 0 0  0 6 0  1.625 0 0  0 -2.875 0  0 -1.625 0  0 1.625 0  0 4.125 0  0 -6 0  0 -4.125 0  4.125 0 0  6 0 0  -0.109375 5.0625 0  -5.0625 -0.109375 0  -0.109375 -5.0625 0  5.0625 0.109375 0  0.8125 -0.1875 0  -0.1875 -0.8125 0  -0.8125 0.1875 0  -0.1875 0.8125 0  1 5.375 0  -5.375 1 0  1 -5.375 0  5.375 -1 0  0.53515625 0.46484375 0  -5.375 -1 0  -1 5.375 0  -1 -5.375 0  -0.5 -6 0  5.375 1 0  6 0.5 0  3.5 0.3046875 0  3.43125 -0.34765625 0  2.875 -1 0  4.125 1 0  0.3046875 3.5 0  -0.34765625 3.56875 0  -1 4.125 0  1 4.125 0  -0.3046875 2.25 0  0.34765625 2.18125 0  1 1.625 0  -1 -1.625 0  -0.3046875 -3.5 0  0.34765625 -3.56875 0  1 -4.125 0  0.3046875 -2.25 0  -0.34765625 -2.18125 0  -1 -4.125 0  -1 -2.875 0  1 -2.875 0  1 -1.625 0  1.625 -1 0  1.625 1 0  2.25 0.3046875 0  2.18125 -0.34765625 0  4.125 -1 0  2.875 1 0  1 2.875 0  -1 1.625 0  -1 2.875 0  -4.125 -1 0  -2.25 0.3046875 0  -2.31875 -0.34765625 0  -2.875 -1 0  -1.625 1 0  -4.125 1 0  -3.5 0.3046875 0  -3.56875 -0.34765625 0  -1.625 -1 0  -2.875 1 0  0.380626321794301 1.06853329530276 0  -1.110819327731092 -0.3739495798319328 0  0.3739495798319328 -1.110819327731092 0  1.151210293219304 0.3991939332620648 0  -0.5 -4.4375 0  0.5 -4.4375 0  5.481553398058253 -0.3712833737864077 0  0.5 4.4375 0  0.5 6 0  -0.522503783594538 -0.3265648647465863 0  -1.3125 0.5 0  -0.5 6 0  0.3265648647465863 -0.522503783594538 0  4.4375 0.5 0  4.4375 -0.5 0  0.5 -6 0  -6 -0.5 0  -5.481553398058253 0.3712833737864077 0  -4.55 -0.4296875 0  -4.4375 0.5 0  -0.5 4.4375 0  0.4792930825242718 5.026881067961165 0  0.4792930825242718 -5.026881067961165 0  -0.5 1.3125 0  1.3125 -0.5 0  -0.5 -1.3125 0  0.25 5.518539952962044 0  0.2125133872612723 -5.500076563152851 0  4.969341874373811 -0.5152550785163683 0  -4.969341874373811 0.5152550785163683 0  3.927189744345589 -0.4712876597840069 0  -5.554036458333333 -0.25 0  5.554036458333333 0.25 0  -0.4690710616438356 -5.462756849315069 0  -0.4690710616438356 5.462756849315069 0  -6 0.5 0  -1.59556436210848 -0.5 0  -3.058421751829955 -0.5 0  -0.5 2.731982421875 0  0.5 2.691578248170045 0  2.691578248170045 -0.5 0  1.641211254104555 0.5 0  0.5 -1.768017578125 0  0.5 -3.058421751829955 0  0.5 1.699267578125 0  3.018017578125 0.5 0  -0.5 -3.018017578125 0  -2.731982421875 0.5 0  6 -0.5 0  -4.050017120925308 -0.5006099332648871 0  -3.940668202764977 0.5371363767281105 0  3.940668202764977 0.5371363767281105 0  0.4517449476047904 3.958458083832335 0  -0.4517449476047904 -3.958458083832335 0  -1.809331797235023 0.5371363767281105 0  -0.4517449476047904 1.791541916167665 0  -0.0546875 4.59375 0  -5.006445312499999 -0.58984375 0  4.605643203883496 -0.04725424757281554 0  4.90625 0.5546875 0  -0.5546875 4.90625 0  0.04725424757281554 -4.605643203883496 0  -0.586116118210531 -4.995821561900013 0  -4.603710222472543 0.04846236095466061 0  -3.1875 0.65234375 0  0.6163907621110913 3.147502300973589 0  2.5625 0.65234375 0  0.6163907621110913 -2.602497699026411 0  -0.637456713551384 3.189259902731882 0  -0.637456713551384 -2.560740097268118 0  -0.34765625 0.34765625 0  -0.639453125 0.708203125 0  0.089630126953125 0.437286376953125 0  -0.4238281249999999 -1.746875 0  1.746875 -0.4238281249999999 0  -0.4238281249999999 4.003125 0  0.4238281249999999 -4.003125 0  -2.5625 -1 0  3.1875 -1 0  -0.09375 -1.21875 0  1.21875 -0.09375 0  0.4020305405760241 -0.1120343241705621 0  -0.6280191027904287 -0.7577505545748082 0  0.90625 -0.59375 0  -1.205500904741459 0.03633725387965409 0  -0.02129048848213058 1.202028574265107 0  -0.1120343241705621 -0.4020305405760241 0  1 1.3125 0  -2.003587563743074 -0.6442361556699288 0  0.6640077663259718 -1.395873598614549 0  5.6875 -1 0  0.6308138580859101 -5.592151086468728 0  -5.6875 -1 0  0.6568032075915271 5.612942566073222 0  5.616530031741774 0.6612875396772174 0  -5.6875 1 0  1.9375 1 0  -1.3125 -1 0  0.1524679547155687 -3.232579139388032 0  0.1524679547155687 2.517420860611968 0  -3.232579139388032 -0.1524679547155687 0  -1.932320553757026 -0.252759244693845 0  2.517420860611968 -0.1524679547155687 0  -0.04776045819569434 -2.464949198504599 0  -0.2420369079104247 3.187693796852321 0  3.751304711039982 -0.1203080877045035 0  -5.397601941771943 -0.609026059866711 0  1.3125 1 0  1.9375 -1 0  -0.6946315101963667 -2.018229242739021 0  -0.6946315101963667 3.731770757260979 0  1 -3.8125 0  2.014364435550335 0.6166648446293641 0  -1 5.6875 0  -1 -5.6875 0  -2.653476149871182 -0.5942957192996303 0  3.096523850128818 -0.5942957192996303 0  1 1.9375 0  -3.8125 -1 0  0.586975531244212 -0.7975955463807081 0  -0.2946248980953088 -4.743710873809568 0  2.625453376770019 0.2814788818359375 0  -3.124546623229981 0.2814788818359375 0  -0.1204856417894853 5.631800603217465 0  5.253862011026742 0.6581468962876398 0  -0.65234375 2.108701557941197 0  0.65234375 3.641298442058803 0  -0.65234375 -3.641298442058803 0  -0.25 -5.744880569758637 0  -4.4375 -1 0  -0.3166212631734941 -2.713595940002554 0  0.6591479224207506 0.1324305912687024 0  0.8660781906552419 0.6468634238104103 0  -0.9887189158197679 0.6452930723873549 0  0.3149351927204296 -1.460971774996065 0  -0.3572852727880474 -0.009629022788047503 0  2.09375 -0.6866724363772454 0  0.6866724363772454 -3.65625 0  0.6866724363772454 2.09375 0  -3.65625 -0.6866724363772454 0  -3.5371337890625 0.65234375 0  -0.1389584113023952 1.944025352615082 0  -2.151744288472698 0.65234375 0  -0.1389584113023951 -3.805974647384918 0  0.1389584113023951 3.805974647384918 0  -2.578772109813904 0.1857224367977529 0  3.171227890186096 0.1857224367977529 0  3.360315647536819 0.65234375 0  0.1857224367977528 -1.921227890186096 0  0.65234375 -2.110315647536819 0  1.894016528727564 0.2415406141485869 0  -3.738232421875 0 0  0.2516875549238616 3.139069895099618 0  -1.913724396854074 0.2011142179916434 0  0.1669456568161915 0.7843410671359501 0  -2.5625 1 0  -1 -3.1875 0  -1 2.5625 0  0.1736601499778735 4.857955663330752 0  -0.1893536587212888 2.577300639071919 0  -0.1893536587212888 -3.172699360928081 0  3.852271904453858 0.206603749322895 0  -3.8125 1 0  -0.1250095034621793 -5.421707592768541 0  3.8125 -1 0  3.617304217264373 -0.6578427703661498 0  0.2630176195580202 -2.636558318495885 0  0.2674330357770522 1.399517071108871 0  0.631726413079416 1.339254523727593 0  4.700571879807737 0.2813704945051134 0  0.7143844363649634 -3.319538455208831 0  2.430461544791169 -0.7143844363649634 0  0.7143844363649634 2.430461544791169 0  -3.319538455208831 -0.7143844363649634 0  5.687045771608623 -0.6520598572553891 0  -5.687045771608623 0.6520598572553891 0  -1.15625 -0.7048248829733235 0  3.438284572973296 -0.01860298867862281 0  -0.03021088078697859 3.451572359862192 0  2.216682837011589 -0.02159585961918548 0  -2.191580885932936 -0.03126387444658879 0  0.1857410764408683 1.895679405349457 0  3.103473238297955 -0.253270943723272 0  -2.646526761702045 -0.253270943723272 0  -2.333137350671861 -0.6791984914172315 0  -1 5.0625 0  -0.6971235589909319 5.213002544375844 0  0.01618705363819947 2.225929180591695 0  0.01618705363819947 -3.524070819408305 0  0.5690054882403073 0.7951310720450595 0  -0.5764940424412852 -3.329579265180942 0  -0.5764940424412852 2.420420734819058 0  3.8125 1 0  -5.372163860234628 0.04365139563106807 0  5.164108319316826 -0.225040894204947 0  -5.361952437854323 0.6744012088984681 0  -5.0625 1 0  5.286835586913878 -0.6616705837083201 0  -5.692815197359722 0.1186699900166531 0  5.663425996156958 -0.07763197815533956 0  -0.9219866027132193 -0.1143045829323572 0  -1.394333629759332 -0.2233077430199216 0  0.09322478991596644 -0.9616596638655462 0  5.0625 -1 0  -0.14412109375 -1.92169189453125 0  -4.28125 -0.7212148987671345 0  0.2649796277366407 0.1735162902120744 0  -4.907855692236596 0.1868230509619793 0  -1.9375 1 0  1 5.0625 0  0.6915124486819284 -5.272938212550202 0  0.683483242673902 5.284948082526911 0  2.5625 -1 0  -1 -3.8125 0  -1 1.9375 0  5.0625 1 0  -1 -1.9375 0  1 5.6875 0  1 -5.6875 0  -1.9375 -1 0  -1 -2.5625 0  -1 3.1875 0  1 -3.1875 0  1 -2.5625 0  1 2.5625 0  1 3.1875 0  -5.0625 -1 0  -1 -1.3125 0  1.3125 -1 0  -1 1.3125 0  -1 3.8125 0  -1 4.4375 0  -4.4375 1 0  4.4375 -1 0  4.4375 1 0  -1.3125 1 0  1 4.4375 0  1 -4.4375 0  -1 -5.0625 0  -1 -4.4375 0  -3.1875 1 0  2.5625 1 0  1 -1.9375 0  1 -1.3125 0  5.6875 1 0  1 3.8125 0  3.1875 1 0  -3.1875 -1 0  1 -5.0625 0  1.35138038998199 0.6675097549271188 0  -0.465625 0.986328125 0  1.435958105992309 0.2563920171199723 0  1.915914614192913 -0.145782394639918 0  -0.8764440609469509 -0.5746869313612541 0  5.355194559946098 0.01566259380337612 0  -5.69333042954964 -0.5242868300459975 0  1.78125 -0.7320750794491524 0  0.7320750794491525 -3.96875 0  -0.3959075548864684 5.166422468926435 0  -4.770522389068053 -0.2123670725088856 0  -4.714160156249999 -0.69234375 0  -4.273484403713342 -0.278160994327167 0  0.9642590244517505 0.08196089404241463 0  0.3500261717645397 -4.727285205957206 0  0.6740868006020392 -4.765147848348443 0  0.6797550207247084 -1.089747806381148 0  -5.186479934354063 0.3046329157552757 0  -5.263288238215326 -0.3369092276308425 0  -2.433484016245305 0.5442571297016638 0  0.1707808983307866 -3.82363304980935 0  -0.1554012991031027 3.867535742674252 0  4.855508096805579 -0.2283975605264581 0  3.644517238097614 0.5646428152488787 0  0.05699603874439441 -0.6452791208413911 0  -0.3550018917972689 -0.5695324323732931 0  0.6
[...]
<PointData  Vectors="u"> 
<DataArray  type="Float64"  Name="u"  NumberOfComponents="3" format="ascii">0.0000000000000000e+00 0.0000000000000000e+00 0.0000000000000000e+00  0.0000000000000000e+00 0.0000000000000000e+00 0.0000000000000000e+00  0.0000000000000000e+00 0.0000000000000000e+00 0.0000000000000000e+00  0.0000000000000000e+00 0.0000000000000000e+00 0.0000000000000000e+00  0.0000000000000000e+00 0.0000000000000000e+00 0.0000000000000000e+00  0.0000000000000000e+00 0.0000000000000000e+00 0.0000000000000000e+00  0.0000000000000000e+00 0.0000000000000000e+00 0.0000000000000000e+00  0.0000000000000000e+00 0.0000000000000000e+00 0.0000000000000000e+00  0.0000000000000000e+00 0.0000000000000000e+00 0.0000000000000000e+00  0.0000000000000000e+00 0.0000000000000000e+00 0.0000000000000000e+00  0.0000000000000000e+00 0.0000000000000000e+00 0.0000000000000000e+00  0.0000000000000000e+00 0.0000000000000000e+00 0.0000000000000000e+00  0.0000000000000000e+00 0.0000000000000000e+00 0.0000000000000000e+00  0.0000000000000000e+00 0.0000000000000000e+00 0.0000000000000000e+00  0.0000000000000000e+00 0.0000000000000000e+00 0.0000000000000000e+00  0.0000000000000000e+00 0.0000000000000000e+00 0.0000000000000000e+00  0.0000000000000000e+00 0.0000000000000000e+00 0.0000000000000000e+00  0.0000000000000000e+00 0.0000000000000000e+00 0.0000000000000000e+00  0.0000000000000000e+00 0.0000000000000000e+00 0.0000000000000000e+00  0.0000000000000000e+00 0.0000000000000000e+00 0.0000000000000000e+00  0.0000000000000000e+00 0.0000000000000000e+00 0.0000000000000000e+00  0.0000000000000000e+00 0.0000000000000000e+00 0.0000000000000000e+00  0.0000000000000000e+00 0.0000000000000000e+00 0.0000000000000000e+00  0.0000000000000000e+00 0.0000000000000000e+00 0.0000000000000000e+00  0.0000000000000000e+00 0.0000000000000000e+00 0.0000000000000000e+00  0.0000000000000000e+00 0.0000000000000000e+00 0.0000000000000000e+00  0.0000000000000000e+00 0.0000000000000000e+00 0.0000000000000000e+00  0.0000000000000000e+00 0.0000000000000000e+00 0.0000000000000000e+00  0.0000000000000000e+00 0.0000000000000000e+00 0.0000000000000000e+00  0.0000000000000000e+00 0.0000000000000000e+00 0.0000000000000000e+00  0.0000000000000000e+00 0.0000000000000000e+00 0.0000000000000000e+00  0.0000000000000000e+00 0.0000000000000000e+00 0.0000000000000000e+00  0.0000000000000000e+00 0.0000000000000000e+00 0.0000000000000000e+00  0.0000000000000000e+00 0.0000000000000000e+00 0.0000000000000000e+00  0.0000000000000000e+00 0.0000000000000000e+00 0.0000000000000000e+00  0.0000000000000000e+00 0.0000000000000000e+00 0.0000000000000000e+00  -1.9737855803793141e-04 1.0311672424199852e-04 0.0000000000000000e+00  5.6710728924581635e-02 -1.1087403740504536e-05 0.0000000000000000e+00  5.4225436124566130e-02 5.6970219595359141e-05 0.0000000000000000e+00  5.6779610433666819e-02 4.3737837271208990e-06 0.0000000000000000e+00  5.6846611396012638e-02 3.7664218883638086e-05 0.0000000000000000e+00  1.3434936058723675e-05 5.6705136556002643e-02 0.0000000000000000e+00  -5.6622588173278088e-02 4.4978131749507153e-05 0.0000000000000000e+00  4.0993803231822423e-05 5.6629143140160189e-02 0.0000000000000000e+00  -5.4327693338681114e-02 1.2058139492063198e-04 0.0000000000000000e+00  6.0170991093460185e-06 -5.6664342488450689e-02 0.0000000000000000e+00  -5.2234821829492859e-06 -5.4184597678402675e-02 0.0000000000000000e+00  4.3322417965235287e-05 5.4119487578655957e-02 0.0000000000000000e+00  3.5524872097359952e-05 5.6657211780126018e-02 0.0000000000000000e+00  4.3737718862729256e-05 -5.6643822851002411e-02 0.0000000000000000e+00  7.1690503620966964e-05 -5.6725154389184976e-02 0.0000000000000000e+00  -5.6787702688446032e-02 -2.2383587874247582e-05 0.0000000000000000e+00  -5.6766079358467406e-02 -4.9876766039255441e-05 0.0000000000000000e+00  -7.0499207336257650e-05 5.6787604344824716e-02 0.0000000000000000e+00  5.6736961259936596e-02 -7.8253503726682190e-05 0.0000000000000000e+00  -8.6300355119307628e-05 -5.6562313406621094e-02 0.0000000000000000e+00  -5.6672885576261774e-02 -6.9626472206005906e-05 0.0000000000000000e+00  -3.6824284872738082e-02 -7.5799481842678835e-03 0.0000000000000000e+00  7.4123941880951559e-03 -3.6369001853474428e-02 0.0000000000000000e+00  3.6250636204785788e-02 7.4766094482145527e-03 0.0000000000000000e+00  7.6065581090072071e-03 3.6427017228349484e-02 0.0000000000000000e+00  0.0000000000000000e+00 0.0000000000000000e+00 0.0000000000000000e+00  0.0000000000000000e+00 0.0000000000000000e+00 0.0000000000000000e+00  0.0000000000000000e+00 0.0000000000000000e+00 0.0000000000000000e+00  0.0000000000000000e+00 0.0000000000000000e+00 0.0000000000000000e+00  -2.5383858666233994e-02 2.1462155279930308e-02 0.0000000000000000e+00  0.0000000000000000e+00 0.0000000000000000e+00 0.0000000000000000e+00  0.0000000000000000e+00 0.0000000000000000e+00 0.0000000000000000e+00  0.0000000000000000e+00 0.0000000000000000e+00 0.0000000000000000e+00  5.5052580028464943e-05 -5.4100162147914944e-02 0.0000000000000000e+00  0.0000000000000000e+00 0.0000000000000000e+00 0.0000000000000000e+00  -5.6483571999044101e-02 -2.2876243581829358e-06 0.0000000000000000e+00  -5.6910388349931583e-02 6.0790646185067679e-05 0.0000000000000000e+00  -5.6785236146531651e-02 2.6035686910991477e-05 0.0000000000000000e+00  0.0000000000000000e+00 0.0000000000000000e+00 0.0000000000000000e+00  0.0000000000000000e+00 0.0000000000000000e+00 0.0000000000000000e+00  3.5490339752130381e-05 5.6682566312438468e-02 0.0000000000000000e+00  -5.3587127374048415e-07 5.6803439496181836e-02 0.0000000000000000e+00  0.0000000000000000e+00 0.0000000000000000e+00 0.0000000000000000e+00  0.0000000000000000e+00 0.0000000000000000e+00 0.0000000000000000e+00  2.6563332676731344e-04 5.6481218811097092e-02 0.0000000000000000e+00  -3.8845134679953895e-04 5.6523352581537754e-02 0.0000000000000000e+00  0.0000000000000000e+00 0.0000000000000000e+00 0.0000000000000000e+00  0.0000000000000000e+00 0.0000000000000000e+00 0.0000000000000000e+00  3.7038495639686296e-05 -5.6694646152332710e-02 0.0000000000000000e+00  1.7438493438056794e-05 -5.6720368532553599e-02 0.0000000000000000e+00  0.0000000000000000e+00 0.0000000000000000e+00 0.0000000000000000e+00  -2.3604346114809529e-04 -5.6466559435168331e-02 0.0000000000000000e+00  4.8128224695213060e-04 -5.6593929233441177e-02 0.0000000000000000e+00  0.0000000000000000e+00 0.0000000000000000e+00 0.0000000000000000e+00  0.0000000000000000e+00 0.0000000000000000e+00 0.0000000000000000e+00  0.0000000000000000e+00 0.0000000000000000e+00 0.0000000000000000e+00  0.0000000000000000e+00 0.0000000000000000e+00 0.0000000000000000e+00  0.0000000000000000e+00 0.0000000000000000e+00 0.0000000000000000e+00  0.0000000000000000e+00 0.0000000000000000e+00 0.0000000000000000e+00  -5.6491271763013599e-02 3.4685567070262828e-04 0.0000000000000000e+00  -5.6474882428679568e-02 -3.5840182460699049e-04 0.0000000000000000e+00  0.0000000000000000e+00 0.0000000000000000e+00 0.0000000000000000e+00  0.0000000000000000e+00 0.0000000000000000e+00 0.0000000000000000e+00  0.0000000000000000e+00 0.0000000000000000e+00 0.0000000000000000e+00  0.0000000000000000e+00 0.0000000000000000e+00 0.0000000000000000e+00  0.0000000000000000e+00 0.0000000000000000e+00 0.0000000000000000e+00  0.0000000000000000e+00 0.0000000000000000e+00 0.0000000000000000e+00  5.6649087186457794e-02 3.5682253243744750e-04 0.0000000000000000e+00  5.6727410886158444e-02 -3.3884977249582822e-04 0.0000000000000000e+00  0.0000000000000000e+00 0.0000000000000000e+00 0.0000000000000000e+00  0.0000000000000000e+00 0.0000000000000000e+00 0.0000000000000000e+00  0.0000000000000000e+00 0.0000000000000000e+00 0.0000000000000000e+00  5.6614027720653992e-02 9.6418023591647798e-05 0.0000000000000000e+00  5.6762017074114088e-02 2.4998912385432976e-05 0.0000000000000000e+00  0.0000000000000000e+00 0.0000000000000000e+00 0.0000000000000000e+00  0.0000000000000000e+00 0.0000000000000000e+00 0.0000000000000000e+00  -1.0528622391069239e-02 4.8078190188194196e-02 0.0000000000000000e+00  4.9403356229941547e-02 -1.0246488693638879e-02 0.0000000000000000e+00  -9.8024830138208063e-03 -4.9863257216590295e-02 0.0000000000000000e+00  -5.0490981780948456e-02 9.2512870669770580e-03 0.0000000000000000e+00  3.5733503599773785e-05 -5.4073300761656638e-02 0.0000000000000000e+00  3.3455180170517993e-07 -5.6762165891599846e-02 0.0000000000000000e+00  -5.6837306907213669e-02 -8.1369142441716570e-05 0.0000000000000000e+00  4.4278615776383243e-06 5.6652551053927511e-02 0.0000000000000000e+00  4.1231715613537874e-05 5.6660086142074462e-02 0.0000000000000000e+00  2.4073871391491350e-02 -1.5017368870243467e-02 0.0000000000000000e+00  5.4904415317254471e-02 7.6386750106243930e-03 0.0000000000000000e+00  1.4439604675577775e-05 5.4099348966765638e-02 0.0000000000000000e+00  -1.4525742498726717e-02 -2.4073094601362983e-02 0.0000000000000000e+00  -5.6686220038230845e-02 -5.3643780245821452e-05 0.0000000000000000e+00  -5.6787947525052167e-02 5.3052060866589178e-06 0.0000000000000000e+00  2.2449129851700259e-05 -5.6668636510904306e-02 0.0000000000000000e+00  5.6876212619970397e-02 -3.3721301359509881e-06 0.0000000000000000e+00  5.6738838931524309e-02 5.5741316395894151e-05 0.0000000000000000e+00  5.6883408749081189e-02 6.8497851752818995e-06 0.0000000000000000e+00  5.3897715144764935e-02 -1.5243806682210042e-05 0.0000000000000000e+00  1.2344441160829426e-05 5.6521677868966724e-02 0.0000000000000000e+00  -3.1880468559050297e-05 5.6801224969521717e-02 0.0000000000000000e+00  -3.2889469488947091e-05 -5.6741356864228466e-02 0.0000000000000000e+00  8.0759323337502801e-03 5.6278486657249945e-02 0.0000000000000000e+00  -5.5441803607305565e-02 -7.5539704862889303e-03 0.0000000000000000e+00  7.6777611729856102e-03 -5.4994123596047578e-02 0.0000000000000000e+00  3.5167987295922036e-05 5.6680881864994370e-02 0.0000000000000000e+00  -2.6467891389096497e-05 -5.6751303959833320e-02 0.0000000000000000e+00  -5.6839747616375232e-02 -5.7644924676472347e-05 0.0000000000000000e+00  5.4548581611208263e-02 -2.6128436822609222e-06 0.0000000000000000e+00  -5.6722975606820353e-02 -3.1337196476822254e-05 0.0000000000000000e+00  5.6815679142428348e-02 -8.7506458318546633e-05 0.0000000000000000e+00  -5.6732056524425083e-02 -1.4661219674650438e-04 0.0000000000000000e+00  5.8452263156460433e-06 -5.6588561299977670e-02 0.0000000000000000e+00  2.1615444620751504e-05 5.6654722493228470e-02 0.0000000000000000e+00  5.5094128956361531e-02 1.2020295556450832e-04 0.0000000000000000e+00  5.6495379372200574e-02 -2.9207875157487850e-03 0.0000000000000000e+00  5.6794011962395342e-02 1.8350529986959493e-05 0.0000000000000000e+00  -1.0230854268036005e-05 5.6726387362491942e-02 0.0000000000000000e+00  -9.3458097215320861e-05 5.6630274321884222e-02 0.0000000000000000e+00  -5.6714193124246026e-02 -3.0265721396421673e-05 0.0000000000000000e+00  -5.6601636492861755e-02 2.8599996615505815e-03 0.0000000000000000e+00  -1.6575312384558962e-03 -5.6369527202671410e-02 0.0000000000000000e+00  -1.9004898470314735e-05 -5.6702646248485040e-02 0.0000000000000000e+00  -1.9464369516694838e-03 5.6719487425556721e-02 0.0000000000000000e+00  -5.6568789546133744e-02 9.6181786433287124e-05 0.0000000000000000e+00  1.1452789319553745e-04 -5.6641380732834860e-02 0.0000000000000000e+00  5.6795578133009679e-02 3.3084582680431652e-09 0.0000000000000000e+00  -5.4987010500626141e-02 -6.2037318809266017e-05 0.0000000000000000e+00  5.6756187470253516e-02 -4.2926412535272982e-06 0.0000000000000000e+00  5.4642575137370843e-02 -1.9188319908065369e-04 0.0000000000000000e+00  -5.4620108590247504e-02 -4.0860049519050493e-04 0.0000000000000000e+00  2.5019912665163790e-05 5.6698843123761930e-02 0.0000000000000000e+00  8.6515653689480781e-05 -5.6720225911786895e-02 0.0000000000000000e+00  5.4343238592011227e-02 1.5041272312234326e-03 0.0000000000000000e+00  1.5786249345173390e-03 5.6089935973651910e-02 0.0000000000000000e+00  5.9080267447546589e-05 5.6698909352095012e-02 0.0000000000000000e+00  5.5152017068850825e-02 1.0692375311070382e-04 0.0000000000000000e+00  -5.6769581854303384e-02 -5.8708715495461448e-06 0.0000000000000000e+00  -5.1738489857475874e-02 8.1108181007198091e-05 0.0000000000000000e+00  7.2576161764507460e-05 5.0726177895285759e-02 0.0000000000000000e+00  -1.3909229888783860e-05 -5.6793386502602038e-02 0.0000000000000000e+00  -2.2628526360561355e-04 -5.1359932154426816e-02 0.0000000000000000e+00  5.6801000892470983e-02 -4.2329876974718831e-05 0.0000000000000000e+00  5.1497787261868815e-02 1.3285473884469507e-04 0.0000000000000000e+00  4.1147999080890139e-05 5.2263217577486747e-02 0.0000000000000000e+00  -5.5976357163666363e-02 2.9503231780159827e-04 0.0000000000000000e+00  -2.1019685027027352e-04 -5.2172448947896112e-02 0.0000000000000000e+00  2.5216137172135822e-04 5.2817214423621299e-02 0.0000000000000000e+00  -1.0732469027718455e-04 -5.3044143999113197e-02 0.0000000000000000e+00  1.5881312212836014e-02 1.5680145933797497e-02 0.0000000000000000e+00  3.0393809394238223e-02 3.4958825402092809e-02 0.0000000000000000e+00  -4.1001608107918289e-03 1.9909489173247832e-02 0.0000000000000000e+00  1.9091988333197964e-03 -5.6123866448502306e-02 0.0000000000000000e+00  -5.5945638153882413e-02 -1.7491491137573930e-03 0.0000000000000000e+00  -2.3389350506477347e-05 5.6619527045123949e-02 0.0000000000000000e+00  -5.4096169021270341e-06 -5.6718780166506624e-02 0.0000000000000000e+00  0.0000000000000000e+00 0.0000000000000000e+00 0.0000000000000000e+00  0.0000000000000000e+00 0.0000000000000000e+00 0.0000000000000000e+00  2.4741900450514650e-03 -4.8743177619982300e-02 0.0000000000000000e+00  -4.8675129374814670e-02 -1.7348344839728659e-03 0.0000000000000000e+00  -1.8529173161647067e-02 -4.8670734850772383e-03 0.0000000000000000e+00  3.0107641599682235e-02 -3.9510119363618729e-02 0.0000000000000000e+00  -4.9190445049060422e-02 -2.3104775720315083e-02 0.0000000000000000e+00  4.8448280934019428e-02 1.1765285679795428e-03 0.0000000000000000e+00  4.8721665393845049e-04 4.8082581821174045e-02 0.0000000000000000e+00  4.9908772469331236e-03 -1.8351101595909299e-02 0.0000000000000000e+00  0.0000000000000000e+00 0.0000000000000000e+00 0.0000000000000000e+00  5.3086261942182134e-02 -8.0996779064265538e-04 0.0000000000000000e+00  -4.3478509723508287e-03 -5.6773424061469652e-02 0.0000000000000000e+00  0.0000000000000000e+00 0.0000000000000000e+00 0.0000000000000000e+00  2.2098530933451139e-04 -5.3057348889915236e-02 0.0000000000000000e+00  0.0000000000000000e+00 0.0000000000000000e+00 0.0000000000000000e+00  3.0435904032082896e-04 5.3655731977781625e-02 0.0000000000000000e+00  -5.3808701637281048e-02 -4.6248694777230217e-04 0.0000000000000000e+00  0.0000000000000000e+00 0.0000000000000000e+00 0.0000000000000000e+00  0.0000000000000000e+00 0.0000000000000000e+00 0.0000000000000000e+00  0.0000000000000000e+00 0.0000000000000000e+00 0.0000000000000000e+00  3.7020710829927981e-05 -5.6684157938905563e-02 0.0000000000000000e+00  -7.7846038948103504e-05 5.6599962127527971e-02 0.0000000000000000e+00  5.6730478075669791e-02 1.5496959000654125e-05 0.0000000000000000e+00  5.6109133979876005e-02 -7.7556639262933540e-04 0.0000000000000000e+00  -5.6542919902285813e-02 -4.2114512212185715e-05 0.0000000000000000e+00  3.7730265383706973e-05 -5.6618002087904115e-02 0.0000000000000000e+00  8.1121934285624219e-05 5.6772869985631122e-02 0.0000000000000000e+00  -5.6810949165732386e-02 8.4061776822598310e-06 0.0000000000000000e+00  5.2346522594464616e-02 4.0105721423088589e-06 0.0000000000000000e+00  0.0000000000000000e+00 0.0000000000000000e+00 0.0000000000000000e+00  0.0000000000000000e+00 0.0000000000000000e+00 0.0000000000000000e+00  1.0062909528052730e-03 -5.4071898088754573e-02 0.0000000000000000e+00  -2.9839000334991512e-04 5.4243362549817445e-02 0.0000000000000000e+00  0.0000000000000000e+00 0.0000000000000000e+00 0.0000000000000000e+00  -5.5473244271390408e-02 6.1782287575703923e-04 0.0000000000000000e+00  0.0000000000000000e+00 0.0000000000000000e+00 0.0000000000000000e+00  0.0000000000000000e+00 0.0000000000000000e+00 0.0000000000000000e+00  5.5310662499744270e-02 2.1177629295711541e-04 0.0000000000000000e+00  -5.4927844638595867e-02 -5.2014832955409251e-05 0.0000000000000000e+00  0.0000000000000000e+00 0.0000000000000000e+00 0.0000000000000000e+00  0.0000000000000000e+00 0.0000000000000000e+00 0.0000000000000000e+00  -2.6595458640605089e-02 -4.1896690316165407e-02 0.0000000000000000e+00  -9.3422217858423441e-05 -5.6835462966706843e-02 0.0000000000000000e+00  -5.6586013323852186e-02 1.1604973102692927e-04 0.0000000000000000e+00  5.6713389560702987e-02 -1.5710699621440947e-05 0.0000000000000000e+00  5.1440799589178020e-05 5.6717124539545173e-02 0.0000000000000000e+00  -5.4274003982054425e-02 -2.3140465720498197e-04 0.0000000000000000e+00  2.8084040705405661e-04 5.3979980375951794e-02 0.0000000000000000e+00  -1.3504549536452916e-04 5.3040440542963189e-02 0.0000000000000000e+00  1.8256271522874891e-04 -5.3592061092129627e-02 0.0000000000000000e+00  6.7913601684377545e-05 -5.6666905347665331e-02 0.0000000000000000e+00  0.0000000000000000e+00 0.0000000000000000e+00 0.0000000000000000e+00  7.0944007160939417e-06 -5.6691123211105206e-02 0.0000000000000000e+00  -2.9813605522638127e-02 5.7997343293203375e-03 0.0000000000000000e+00  -4.4545666881362939e-02 2.9680912177017651e-02 0.0000000000000000e+00  5.1856590488238943e-02 2.3760446288849716e-02 0.0000000000000000e+00  -3.6762096265477609e-03 -5.3687671553032161e-02 0.0000000000000000e+00  1.6148175275966754e-02 -1.3746424488465152e-04 0.0000000000000000e+00  -5.4270313956483102e-02 -4.5564421104872825e-04 0.0000000000000000e+00  1.8260742596577764e-05 -5.4064476838364343e-02 0.0000000000000000e+00  -4.7710118376670515e-04 5.4240723256154526e-02 0.0000000000000000e+00  5.3812955814268169e-02 1.0312575877420730e-04 0.0000000000000000e+00  5.4433006328649364e-02 9.3051788946848715e-05 0.0000000000000000e+00  4.2986366312831425e-04 5.5994447436629055e-02 0.0000000000000000e+00  5.4975107012764500e-02 7.6099995328575041e-04 0.0000000000000000e+00  5.6915933024363580e-05 -5.6701840445560835e-02 0.0000000000000000e+00  4.3365641194865570e-05 5.6715732644326750e-02 0.0000000000000000e+00  5.6632520577745850e-02 2.7475417774030441e-05 0.0000000000000000e+00  -5.6645856425061772e-02 1.0855398757243944e-04 0.0000000000000000e+00  -5.3505321471109493e-02 4.8803535771537024e-04 0.0000000000000000e+00  -4.3028903911547295e-04 -5.5890869989349092e-02 0.0000000000000000e+00  -3.1761032811470426e-04 -5.3023652419302882e-02 0.0000000000000000e+00  -5.5947635137505940e-02 9.4403942597321474e-04 0.0000000000000000e+00  5.6764664378271851e-02 3.5574476220786772e-05 0.0000000000000000e+00  2.3777944525052998e-05 5.6764060004379689e-02 0.0000000000000000e+00  5.5933586261674939e-02 7.9214611503724381e-04 0.0000000000000000e+00  -6.7780578800513405e-03 3.5369688195539185e-02 0.0000000000000000e+00  0.0000000000000000e+00 0.0000000000000000e+00 0.0000000000000000e+00  0.0000000000000000e+00 0.0000000000000000e+00 0.0000000000000000e+00  0.0000000000000000e+00 0.0000000000000000e+00 0.0000000000000000e+00  -1.3184207570248788e-05 5.6727483791104649e-02 0.0000000000000000e+00  4.6898261915846905e-05 5.6562412707145050e-02 0.0000000000000000e+00  5.5462361479341833e-05 -5.6593013347577971e-02 0.0000000000000000e+00  -5.6712729153393496e-02 2.7126662765907217e-05 0.0000000000000000e+00  0.0000000000000000e+00 0.0000000000000000e+00 0.0000000000000000e+00  -2.9231593927503314e-05 -5.6674119700026532e-02 0.0000000000000000e+00  0.0000000000000000e+00 0.0000000000000000e+00 0.0000000000000000e+00  -5.2813034517834201e-02 -1.5419429961577697e-05 0.0000000000000000e+00  -7.7799462059888620e-05 -5.6672325898483450e-02 0.0000000000000000e+00  -4.0701565174272245e-03 5.2662201246492214e-02 0.0000000000000000e+00  -5.8789108441455740e-03 5.5435765371370835e-02 0.0000000000000000e+00  -5.6868872991150440e-02 7.8282530888817632e-06