<?xml version="1.0"?>
<VTKFile type="UnstructuredGrid"  version="0.1"  >
<UnstructuredGrid>
<Piece  NumberOfPoints="778" NumberOfCells="1401">
<Points>
<DataArray  type="Float64"  NumberOfComponents="3"  format="ascii">1 -1 0  6 -1 0  6 1 0  1 1 0  1 6 0  -1 6 0  -1 1 0  -6 1 0  -6 -1 0  -1 -1 0  -1 -6 0  1 -6 0  1 3.5 0  -1 3.5 0  -1 -3.5 0  1 -3.5 0  3.5 -1 0  3.5 1 0  -3.5 -1 0  -3.5 1 0  -1 -2.25 0  1 -2.25 0  2.25 -1 0  2.25 1 0  -1 2.25 0  1 2.25 0  -1 4.75 0  1 4.75 0  -4.75 -1 0  -4.75 1 0  -2.25 1 0  -2.25 -1 0  1 -4.75 0  -1 -4.75 0  4.75 1 0  4.75 -1 0  0 0 0  -2.875 0 0  -1.625 0 0  -4.125 0 0  -6 0 0  0 2.875 0  2.875 0 0  0 6 0  1.625 0 0  0 -2.875 0  0 -1.625 0  0 1.625 0  0 4.125 0  0 -6 0  0 -4.125 0  4.125 0 0  6 0 0  -0.109375 5.0625 0  -5.0625 -0.109375 0  -0.109375 -5.0625 0  5.0625 0.109375 0  0.8125 -0.1875 0  -0.1875 -0.8125 0  -0.8125 0.1875 0  -0.1875 0.8125 0  1 5.375 0  -5.375 1 0  1 -5.375 0  5.375 -1 0  0.53515625 0.46484375 0  -5.375 -1 0  -1 5.375 0  -1 -5.375 0  -0.5 -6 0  5.375 1 0  6 0.5 0  3.5 0.3046875 0  3.43125 -0.34765625 0  2.875 -1 0  4.125 1 0  0.3046875 3.5 0  -0.34765625 3.56875 0  -1 4.125 0  1 4.125 0  -0.3046875 2.25 0  0.34765625 2.18125 0  1 1.625 0  -1 -1.625 0  -0.3046875 -3.5 0  0.34765625 -3.56875 0  1 -4.125 0  0.3046875 -2.25 0  -0.34765625 -2.18125 0  -1 -4.125 0  -1 -2.875 0  1 -2.875 0  1 -1.625 0  1.625 -1 0  1.625 1 0  2.25 0.3046875 0  2.18125 -0.34765625 0  4.125 -1 0  2.875 1 0  1 2.875 0  -1 1.625 0  -1 2.875 0  -4.125 -1 0  -2.25 0.3046875 0  -2.31875 -0.34765625 0  -2.875 -1 0  -1.625 1 0  -4.125 1 0  -3.5 0.3046875 0  -3.56875 -0.34765625 0  -1.625 -1 0  -2.875 1 0  0.380626321794301 1.06853329530276 0  -1.110819327731092 -0.3739495798319328 0  0.3739495798319328 -1.110819327731092 0  1.151210293219304 0.3991939332620648 0  -0.5 -4.4375 0  0.5 -4.4375 0  5.481553398058253 -0.3712833737864077 0  0.5 4.4375 0  0.5 6 0  -0.522503783594538 -0.3265648647465863 0  -1.3125 0.5 0  -0.5 6 0  0.3265648647465863 -0.522503783594538 0  4.4375 0.5 0  4.4375 -0.5 0  0.5 -6 0  -6 -0.5 0  -5.481553398058253 0.3712833737864077 0  -4.55 -0.4296875 0  -4.4375 0.5 0  -0.5 4.4375 0  0.4792930825242718 5.026881067961165 0  0.4792930825242718 -5.026881067961165 0  -0.5 1.3125 0  1.3125 -0.5 0  -0.5 -1.3125 0  0.25 5.518539952962044 0  0.2125133872612723 -5.500076563152851 0  4.969341874373811 -0.5152550785163683 0  -4.969341874373811 0.5152550785163683 0  3.927189744345589 -0.4712876597840069 0  -5.554036458333333 -0.25 0  5.554036458333333 0.25 0  -0.4690710616438356 -5.462756849315069 0  -0.4690710616438356 5.462756849315069 0  -6 0.5 0  -1.59556436210848 -0.5 0  -3.058421751829955 -0.5 0  -0.5 2.731982421875 0  0.5 2.691578248170045 0  2.691578248170045 -0.5 0  1.641211254104555 0.5 0  0.5 -1.768017578125 0  0.5 -3.058421751829955 0  0.5 1.699267578125 0  3.018017578125 0.5 0  -0.5 -3.018017578125 0  -2.731982421875 0.5 0  6 -0.5 0  -4.050017120925308 -0.5006099332648871 0  -3.940668202764977 0.5371363767281105 0  3.940668202764977 0.5371363767281105 0  0.4517449476047904 3.958458083832335 0  -0.4517449476047904 -3.958458083832335 0  -1.809331797235023 0.5371363767281105 0  -0.4517449476047904 1.791541916167665 0  -0.0546875 4.59375 0  -5.006445312499999 -0.58984375 0  4.605643203883496 -0.04725424757281554 0  4.90625 0.5546875 0  -0.5546875 4.90625 0  0.04725424757281554 -4.605643203883496 0  -0.586116118210531 -4.995821561900013 0  -4.603710222472543 0.04846236095466061 0  -3.1875 0.65234375 0  0.6163907621110913 3.147502300973589 0  2.5625 0.65234375 0  0.6163907621110913 -2.602497699026411 0  -0.637456713551384 3.189259902731882 0  -0.637456713551384 -2.560740097268118 0  -0.34765625 0.34765625 0  -0.639453125 0.708203125 0  0.089630126953125 0.437286376953125 0  -0.4238281249999999 -1.746875 0  1.746875 -0.4238281249999999 0  -0.4238281249999999 4.003125 0  0.4238281249999999 -4.003125 0  -2.5625 -1 0  3.1875 -1 0  -0.09375 -1.21875 0  1.21875 -0.09375 0  0.4020305405760241 -0.1120343241705621 0  -0.6280191027904287 -0.7577505545748082 0  0.90625 -0.59375 0  -1.205500904741459 0.03633725387965409 0  -0.02129048848213058 1.202028574265107 0  -0.1120343241705621 -0.4020305405760241 0  1 1.3125 0  -2.003587563743074 -0.6442361556699288 0  0.6640077663259718 -1.395873598614549 0  5.6875 -1 0  0.6308138580859101 -5.592151086468728 0  -5.6875 -1 0  0.6568032075915271 5.612942566073222 0  5.616530031741774 0.6612875396772174 0  -5.6875 1 0  1.9375 1 0  -1.3125 -1 0  0.1524679547155687 -3.232579139388032 0  0.1524679547155687 2.517420860611968 0  -3.232579139388032 -0.1524679547155687 0  -1.932320553757026 -0.252759244693845 0  2.517420860611968 -0.1524679547155687 0  -0.04776045819569434 -2.464949198504599 0  -0.2420369079104247 3.187693796852321 0  3.751304711039982 -0.1203080877045035 0  -5.397601941771943 -0.609026059866711 0  1.3125 1 0  1.9375 -1 0  -0.6946315101963667 -2.018229242739021 0  -0.6946315101963667 3.731770757260979 0  1 -3.8125 0  2.014364435550335 0.6166648446293641 0  -1 5.6875 0  -1 -5.6875 0  -2.653476149871182 -0.5942957192996303 0  3.096523850128818 -0.5942957192996303 0  1 1.9375 0  -3.8125 -1 0  0.586975531244212 -0.7975955463807081 0  -0.2946248980953088 -4.743710873809568 0  2.625453376770019 0.2814788818359375 0  -3.124546623229981 0.2814788818359375 0  -0.1204856417894853 5.631800603217465 0  5.253862011026742 0.6581468962876398 0  -0.65234375 2.108701557941197 0  0.65234375 3.641298442058803 0  -0.65234375 -3.641298442058803 0  -0.25 -5.744880569758637 0  -4.4375 -1 0  -0.3166212631734941 -2.713595940002554 0  0.6591479224207506 0.1324305912687024 0  0.8660781906552419 0.6468634238104103 0  -0.9887189158197679 0.6452930723873549 0  0.3149351927204296 -1.460971774996065 0  -0.3572852727880474 -0.009629022788047503 0  2.09375 -0.6866724363772454 0  0.6866724363772454 -3.65625 0  0.6866724363772454 2.09375 0  -3.65625 -0.6866724363772454 0  -3.5371337890625 0.65234375 0  -0.1389584113023952 1.944025352615082 0  -2.151744288472698 0.65234375 0  -0.1389584113023951 -3.805974647384918 0  0.1389584113023951 3.805974647384918 0  -2.578772109813904 0.1857224367977529 0  3.171227890186096 0.1857224367977529 0  3.360315647536819 0.65234375 0  0.1857224367977528 -1.921227890186096 0  0.65234375 -2.110315647536819 0  1.894016528727564 0.2415406141485869 0  -3.738232421875 0 0  0.2516875549238616 3.139069895099618 0  -1.913724396854074 0.2011142179916434 0  0.1669456568161915 0.7843410671359501 0  -2.5625 1 0  -1 -3.1875 0  -1 2.5625 0  0.1736601499778735 4.857955663330752 0  -0.1893536587212888 2.577300639071919 0  -0.1893536587212888 -3.172699360928081 0  3.852271904453858 0.206603749322895 0  -3.8125 1 0  -0.1250095034621793 -5.421707592768541 0  3.8125 -1 0  3.617304217264373 -0.6578427703661498 0  0.2630176195580202 -2.636558318495885 0  0.2674330357770522 1.399517071108871 0  0.631726413079416 1.339254523727593 0  4.700571879807737 0.2813704945051134 0  0.7143844363649634 -3.319538455208831 0  2.430461544791169 -0.7143844363649634 0  0.7143844363649634 2.430461544791169 0  -3.319538455208831 -0.7143844363649634 0  5.687045771608623 -0.6520598572553891 0  -5.687045771608623 0.6520598572553891 0  -1.15625 -0.7048248829733235 0  3.438284572973296 -0.01860298867862281 0  -0.03021088078697859 3.451572359862192 0  2.216682837011589 -0.02159585961918548 0  -2.191580885932936 -0.03126387444658879 0  0.1857410764408683 1.895679405349457 0  3.103473238297955 -0.253270943723272 0  -2.646526761702045 -0.253270943723272 0  -2.333137350671861 -0.6791984914172315 0  -1 5.0625 0  -0.6971235589909319 5.213002544375844 0  0.01618705363819947 2.225929180591695 0  0.01618705363819947 -3.524070819408305 0  0.5690054882403073 0.7951310720450595 0  -0.5764940424412852 -3.329579265180942 0  -0.5764940424412852 2.420420734819058 0  3.8125 1 0  -5.372163860234628 0.04365139563106807 0  5.164108319316826 -0.225040894204947 0  -5.361952437854323 0.6744012088984681 0  -5.0625 1 0  5.286835586913878 -0.6616705837083201 0  -5.692815197359722 0.1186699900166531 0  5.663425996156958 -0.07763197815533956 0  -0.9219866027132193 -0.1143045829323572 0  -1.394333629759332 -0.2233077430199216 0  0.09322478991596644 -0.9616596638655462 0  5.0625 -1 0  -0.14412109375 -1.92169189453125 0  -4.28125 -0.7212148987671345 0  0.2649796277366407 0.1735162902120744 0  -4.907855692236596 0.1868230509619793 0  -1.9375 1 0  1 5.0625 0  0.6915124486819284 -5.272938212550202 0  0.683483242673902 5.284948082526911 0  2.5625 -1 0  -1 -3.8125 0  -1 1.9375 0  5.0625 1 0  -1 -1.9375 0  1 5.6875 0  1 -5.6875 0  -1.9375 -1 0  -1 -2.5625 0  -1 3.1875 0  1 -3.1875 0  1 -2.5625 0  1 2.5625 0  1 3.1875 0  -5.0625 -1 0  -1 -1.3125 0  1.3125 -1 0  -1 1.3125 0  -1 3.8125 0  -1 4.4375 0  -4.4375 1 0  4.4375 -1 0  4.4375 1 0  -1.3125 1 0  1 4.4375 0  1 -4.4375 0  -1 -5.0625 0  -1 -4.4375 0  -3.1875 1 0  2.5625 1 0  1 -1.9375 0  1 -1.3125 0  5.6875 1 0  1 3.8125 0  3.1875 1 0  -3.1875 -1 0  1 -5.0625 0  1.35138038998199 0.6675097549271188 0  -0.465625 0.986328125 0  1.435958105992309 0.2563920171199723 0  1.915914614192913 -0.145782394639918 0  -0.8764440609469509 -0.5746869313612541 0  5.355194559946098 0.01566259380337612 0  -5.69333042954964 -0.5242868300459975 0  1.78125 -0.7320750794491524 0  0.7320750794491525 -3.96875 0  -0.3959075548864684 5.166422468926435 0  -4.770522389068053 -0.2123670725088856 0  -4.714160156249999 -0.69234375 0  -4.273484403713342 -0.278160994327167 0  0.9642590244517505 0.08196089404241463 0  0.3500261717645397 -4.727285205957206 0  0.6740868006020392 -4.765147848348443 0  0.6797550207247084 -1.089747806381148 0  -5.186479934354063 0.3046329157552757 0  -5.263288238215326 -0.3369092276308425 0  -2.433484016245305 0.5442571297016638 0  0.1707808983307866 -3.82363304980935 0  -0.1554012991031027 3.867535742674252 0  4.855508096805579 -0.2283975605264581 0  3.644517238097614 0.5646428152488787 0  0.05699603874439441 -0.6452791208413911 0  -0.3550018917972689 -0.5695324323732931 0  0.6
[...]
<PointData  Vectors="u"> 
<DataArray  type="Float64"  Name="u"  NumberOfComponents="3" format="ascii">0.0000000000000000e+00 0.0000000000000000e+00 0.0000000000000000e+00  0.0000000000000000e+00 0.0000000000000000e+00 0.0000000000000000e+00  0.0000000000000000e+00 0.0000000000000000e+00 0.0000000000000000e+00  0.0000000000000000e+00 0.0000000000000000e+00 0.0000000000000000e+00  0.0000000000000000e+00 0.0000000000000000e+00 0.0000000000000000e+00  0.0000000000000000e+00 0.0000000000000000e+00 0.0000000000000000e+00  0.0000000000000000e+00 0.0000000000000000e+00 0.0000000000000000e+00  0.0000000000000000e+00 0.0000000000000000e+00 0.0000000000000000e+00  0.0000000000000000e+00 0.0000000000000000e+00 0.0000000000000000e+00  0.0000000000000000e+00 0.0000000000000000e+00 0.0000000000000000e+00  0.0000000000000000e+00 0.0000000000000000e+00 0.0000000000000000e+00  0.0000000000000000e+00 0.0000000000000000e+00 0.0000000000000000e+00  0.0000000000000000e+00 0.0000000000000000e+00 0.0000000000000000e+00  0.0000000000000000e+00 0.0000000000000000e+00 0.0000000000000000e+00  0.0000000000000000e+00 0.0000000000000000e+00 0.0000000000000000e+00  0.0000000000000000e+00 0.0000000000000000e+00 0.0000000000000000e+00  0.0000000000000000e+00 0.0000000000000000e+00 0.0000000000000000e+00  0.0000000000000000e+00 0.0000000000000000e+00 0.0000000000000000e+00  0.0000000000000000e+00 0.0000000000000000e+00 0.0000000000000000e+00  0.0000000000000000e+00 0.0000000000000000e+00 0.0000000000000000e+00  0.0000000000000000e+00 0.0000000000000000e+00 0.0000000000000000e+00  0.0000000000000000e+00 0.0000000000000000e+00 0.0000000000000000e+00  0.0000000000000000e+00 0.0000000000000000e+00 0.0000000000000000e+00  0.0000000000000000e+00 0.0000000000000000e+00 0.0000000000000000e+00  0.0000000000000000e+00 0.0000000000000000e+00 0.0000000000000000e+00  0.0000000000000000e+00 0.0000000000000000e+00 0.0000000000000000e+00  0.0000000000000000e+00 0.0000000000000000e+00 0.0000000000000000e+00  0.0000000000000000e+00 0.0000000000000000e+00 0.0000000000000000e+00  0.0000000000000000e+00 0.0000000000000000e+00 0.0000000000000000e+00  0.0000000000000000e+00 0.0000000000000000e+00 0.0000000000000000e+00  0.0000000000000000e+00 0.0000000000000000e+00 0.0000000000000000e+00  0.0000000000000000e+00 0.0000000000000000e+00 0.0000000000000000e+00  0.0000000000000000e+00 0.0000000000000000e+00 0.0000000000000000e+00  0.0000000000000000e+00 0.0000000000000000e+00 0.0000000000000000e+00  0.0000000000000000e+00 0.0000000000000000e+00 0.0000000000000000e+00  0.0000000000000000e+00 0.0000000000000000e+00 0.0000000000000000e+00  -1.8096762002518287e-04 7.5284563640196913e-05 0.0000000000000000e+00  3.6332611634928028e-02 -9.5595128269299654e-06 0.0000000000000000e+00  3.4630869314162212e-02 6.7434053345272595e-05 0.0000000000000000e+00  3.6367622313640907e-02 1.7340310142320365e-06 0.0000000000000000e+00  3.6400021416031048e-02 2.8650669767214500e-05 0.0000000000000000e+00  8.9546949934933932e-06 3.6304030202366958e-02 0.0000000000000000e+00  -3.6256908865281746e-02 3.6298912454062330e-05 0.0000000000000000e+00  3.0305452534389947e-05 3.6279546071522666e-02 0.0000000000000000e+00  -3.4704933038839487e-02 1.0065391522898445e-04 0.0000000000000000e+00  8.0487444884100242e-06 -3.6290379513593589e-02 0.0000000000000000e+00  -2.7742056619181392e-05 -3.4503802741349114e-02 0.0000000000000000e+00  3.3050537619244367e-05 3.4471130927542698e-02 0.0000000000000000e+00  3.1994164626427927e-05 3.6291459737214725e-02 0.0000000000000000e+00  3.1575435855416593e-05 -3.6291338772640756e-02 0.0000000000000000e+00  4.9479691845992346e-05 -3.6339663034920838e-02 0.0000000000000000e+00  -3.6379816382144797e-02 -9.5306453564022480e-06 0.0000000000000000e+00  -3.6335196720590789e-02 -3.4452188717800001e-05 0.0000000000000000e+00  -4.2691370648420215e-05 3.6383173340221245e-02 0.0000000000000000e+00  3.6314185240407929e-02 -4.0719700479662435e-05 0.0000000000000000e+00  -5.6712163517608310e-05 -3.6125039166105939e-02 0.0000000000000000e+00  -3.6228738235142555e-02 -4.2480565716659912e-05 0.0000000000000000e+00  -2.3427251649771556e-02 -4.9292871162820657e-03 0.0000000000000000e+00  4.6545281577016545e-03 -2.2978524446482941e-02 0.0000000000000000e+00  2.2903468760392780e-02 4.8960636907354124e-03 0.0000000000000000e+00  4.8933562431103181e-03 2.3015204023660380e-02 0.0000000000000000e+00  0.0000000000000000e+00 0.0000000000000000e+00 0.0000000000000000e+00  0.0000000000000000e+00 0.0000000000000000e+00 0.0000000000000000e+00  0.0000000000000000e+00 0.0000000000000000e+00 0.0000000000000000e+00  0.0000000000000000e+00 0.0000000000000000e+00 0.0000000000000000e+00  -1.6159823597941773e-02 1.3538910000698319e-02 0.0000000000000000e+00  0.0000000000000000e+00 0.0000000000000000e+00 0.0000000000000000e+00  0.0000000000000000e+00 0.0000000000000000e+00 0.0000000000000000e+00  0.0000000000000000e+00 0.0000000000000000e+00 0.0000000000000000e+00  5.7617326151826440e-05 -3.4628713878089579e-02 0.0000000000000000e+00  0.0000000000000000e+00 0.0000000000000000e+00 0.0000000000000000e+00  -3.6219569620206088e-02 -1.2659579254958770e-06 0.0000000000000000e+00  -3.6213383917257154e-02 5.2169235533116843e-05 0.0000000000000000e+00  -3.6119262041302322e-02 5.0505251027699029e-07 0.0000000000000000e+00  0.0000000000000000e+00 0.0000000000000000e+00 0.0000000000000000e+00  0.0000000000000000e+00 0.0000000000000000e+00 0.0000000000000000e+00  1.7790877687096742e-05 3.6237720632534901e-02 0.0000000000000000e+00  -8.9126546850550750e-06 3.6277418371455900e-02 0.0000000000000000e+00  0.0000000000000000e+00 0.0000000000000000e+00 0.0000000000000000e+00  0.0000000000000000e+00 0.0000000000000000e+00 0.0000000000000000e+00  1.7770926887407011e-04 3.5984765770677246e-02 0.0000000000000000e+00  -2.8336449274833560e-04 3.6119591638916163e-02 0.0000000000000000e+00  0.0000000000000000e+00 0.0000000000000000e+00 0.0000000000000000e+00  0.0000000000000000e+00 0.0000000000000000e+00 0.0000000000000000e+00  4.7272859171547266e-05 -3.6161644899518994e-02 0.0000000000000000e+00  1.2389480086082916e-05 -3.6272909223352107e-02 0.0000000000000000e+00  0.0000000000000000e+00 0.0000000000000000e+00 0.0000000000000000e+00  -1.6385551841090784e-04 -3.6148607317182301e-02 0.0000000000000000e+00  3.4628570649135391e-04 -3.6096891631938278e-02 0.0000000000000000e+00  0.0000000000000000e+00 0.0000000000000000e+00 0.0000000000000000e+00  0.0000000000000000e+00 0.0000000000000000e+00 0.0000000000000000e+00  0.0000000000000000e+00 0.0000000000000000e+00 0.0000000000000000e+00  0.0000000000000000e+00 0.0000000000000000e+00 0.0000000000000000e+00  0.0000000000000000e+00 0.0000000000000000e+00 0.0000000000000000e+00  0.0000000000000000e+00 0.0000000000000000e+00 0.0000000000000000e+00  -3.5924947318182250e-02 2.6156445897312962e-04 0.0000000000000000e+00  -3.6092883745235137e-02 -2.4567812663231053e-04 0.0000000000000000e+00  0.0000000000000000e+00 0.0000000000000000e+00 0.0000000000000000e+00  0.0000000000000000e+00 0.0000000000000000e+00 0.0000000000000000e+00  0.0000000000000000e+00 0.0000000000000000e+00 0.0000000000000000e+00  0.0000000000000000e+00 0.0000000000000000e+00 0.0000000000000000e+00  0.0000000000000000e+00 0.0000000000000000e+00 0.0000000000000000e+00  0.0000000000000000e+00 0.0000000000000000e+00 0.0000000000000000e+00  3.5982217238271483e-02 2.8701634155992056e-04 0.0000000000000000e+00  3.6073068407375869e-02 -2.1528226266513266e-04 0.0000000000000000e+00  0.0000000000000000e+00 0.0000000000000000e+00 0.0000000000000000e+00  0.0000000000000000e+00 0.0000000000000000e+00 0.0000000000000000e+00  0.0000000000000000e+00 0.0000000000000000e+00 0.0000000000000000e+00  3.5995099914758244e-02 6.0693256121220223e-05 0.0000000000000000e+00  3.6300873188443189e-02 1.7587215177325549e-05 0.0000000000000000e+00  0.0000000000000000e+00 0.0000000000000000e+00 0.0000000000000000e+00  0.0000000000000000e+00 0.0000000000000000e+00 0.0000000000000000e+00  -6.7444388243027426e-03 3.0333304307921197e-02 0.0000000000000000e+00  3.1283285685394853e-02 -6.7291924893292466e-03 0.0000000000000000e+00  -6.2850178309782909e-03 -3.1623132008225183e-02 0.0000000000000000e+00  -3.1970109638390420e-02 5.9825050478892212e-03 0.0000000000000000e+00  4.1360205919594836e-05 -3.4456256160402182e-02 0.0000000000000000e+00  -4.9462340767593241e-06 -3.6275096246472405e-02 0.0000000000000000e+00  -3.6184874808188390e-02 -4.3553240452240639e-05 0.0000000000000000e+00  9.2766181338346769e-07 3.6216094687458504e-02 0.0000000000000000e+00  5.0830231812033334e-05 3.6099194576436185e-02 0.0000000000000000e+00  1.5273361900583425e-02 -9.5642067711131287e-03 0.0000000000000000e+00  3.4787854527542669e-02 4.9560899100765726e-03 0.0000000000000000e+00  3.6585624024940875e-05 3.4601593966681152e-02 0.0000000000000000e+00  -9.0708687179572884e-03 -1.5167633440306345e-02 0.0000000000000000e+00  -3.6036048183238203e-02 6.5328335011719297e-06 0.0000000000000000e+00  -3.6302668713252301e-02 1.0089136070125893e-05 0.0000000000000000e+00  4.5321766910397033e-05 -3.6052211089437132e-02 0.0000000000000000e+00  3.6360701676539015e-02 7.2585588967678322e-06 0.0000000000000000e+00  3.6115213459555651e-02 4.2686035124429540e-05 0.0000000000000000e+00  3.6296301908724848e-02 5.9519252475222978e-06 0.0000000000000000e+00  3.4268703482525663e-02 -1.3013447235329004e-05 0.0000000000000000e+00  3.2064450943650615e-05 3.6025639767353367e-02 0.0000000000000000e+00  -3.6848215679575060e-05 3.6288691451227283e-02 0.0000000000000000e+00  -2.0096567348482571e-05 -3.6189862366941092e-02 0.0000000000000000e+00  5.5069221679306017e-03 3.5878205951582351e-02 0.0000000000000000e+00  -3.5187546706004380e-02 -5.1388488615704995e-03 0.0000000000000000e+00  4.9143078228166435e-03 -3.4826073903793046e-02 0.0000000000000000e+00  2.5476624327731947e-05 3.6236947802528272e-02 0.0000000000000000e+00  -1.7111398816378111e-05 -3.6365061949899996e-02 0.0000000000000000e+00  -3.6339168836850087e-02 -5.8890901917156106e-05 0.0000000000000000e+00  3.4516155649546770e-02 1.3258418210268668e-05 0.0000000000000000e+00  -3.6152301200234292e-02 -1.8782675210027132e-05 0.0000000000000000e+00  3.6190824429837259e-02 -2.8145733783385815e-05 0.0000000000000000e+00  -3.6268771940017389e-02 -9.9224112136725697e-05 0.0000000000000000e+00  5.8252492963202571e-06 -3.6116925362964299e-02 0.0000000000000000e+00  5.5833327047361847e-06 3.6111097434191858e-02 0.0000000000000000e+00  3.5008859542377486e-02 9.2459133074376012e-05 0.0000000000000000e+00  3.6033377944677446e-02 -1.9713274076074098e-03 0.0000000000000000e+00  3.6243256311310007e-02 4.2772129152269623e-06 0.0000000000000000e+00  9.6114090989804556e-06 3.6196943497664724e-02 0.0000000000000000e+00  -7.8156121482255464e-05 3.6073772596378104e-02 0.0000000000000000e+00  -3.6188672943800744e-02 -1.5678493878185142e-05 0.0000000000000000e+00  -3.6085333800768116e-02 1.9843900187657480e-03 0.0000000000000000e+00  -1.2585228718674998e-03 -3.5998680996375473e-02 0.0000000000000000e+00  5.6100774131826118e-06 -3.6092223816136929e-02 0.0000000000000000e+00  -1.4113876820039109e-03 3.6265181989595663e-02 0.0000000000000000e+00  -3.6198078693224646e-02 8.5952140854236877e-05 0.0000000000000000e+00  6.0208193490659987e-05 -3.6142728359113585e-02 0.0000000000000000e+00  3.6117205657412353e-02 4.3330480414213573e-06 0.0000000000000000e+00  -3.4809294608019868e-02 -2.0010399704455111e-05 0.0000000000000000e+00  3.6293804927131620e-02 -3.9301200899178925e-06 0.0000000000000000e+00  3.4641802503566327e-02 -1.2857619008573991e-04 0.0000000000000000e+00  -3.4656073694284389e-02 -2.7222258476675593e-04 0.0000000000000000e+00  3.3011040446396882e-05 3.6137877655400524e-02 0.0000000000000000e+00  5.8189915881941876e-05 -3.6112988989020850e-02 0.0000000000000000e+00  3.4527903137783804e-02 1.0366334977861091e-03 0.0000000000000000e+00  1.1284334045190128e-03 3.5736700845073022e-02 0.0000000000000000e+00  4.3481164857776870e-05 3.6308692106154394e-02 0.0000000000000000e+00  3.4943949725417506e-02 2.2743124771673258e-05 0.0000000000000000e+00  -3.6360594330467663e-02 -8.2447025603576749e-06 0.0000000000000000e+00  -3.1966398961417598e-02 6.6461419645002896e-05 0.0000000000000000e+00  4.1973891195114131e-05 3.1041662980013866e-02 0.0000000000000000e+00  -7.4031000729434750e-06 -3.6376220524731849e-02 0.0000000000000000e+00  -1.2715121320065886e-04 -3.1571411593318430e-02 0.0000000000000000e+00  3.6373534462790652e-02 -2.2398206815567684e-05 0.0000000000000000e+00  3.1360414712323655e-02 6.4154218642241068e-05 0.0000000000000000e+00  1.1839825234188574e-05 3.2182516348442783e-02 0.0000000000000000e+00  -3.5456355188992483e-02 2.1524644560228583e-04 0.0000000000000000e+00  -8.8155699298176927e-05 -3.2145314676502550e-02 0.0000000000000000e+00  1.3980981053872066e-04 3.2346646845480546e-02 0.0000000000000000e+00  -3.6467120078036844e-05 -3.2173915967167885e-02 0.0000000000000000e+00  1.0025601089530553e-02 9.7949150151258480e-03 0.0000000000000000e+00  1.9006067673767536e-02 2.2032009685790374e-02 0.0000000000000000e+00  -2.5394519892711332e-03 1.2579096520690617e-02 0.0000000000000000e+00  1.3454509594243917e-03 -3.5760781426635697e-02 0.0000000000000000e+00  -3.5674643697197826e-02 -1.2033724871319379e-03 0.0000000000000000e+00  -1.8645582990475196e-05 3.6069400638961913e-02 0.0000000000000000e+00  6.0914092812362806e-06 -3.6136704149241423e-02 0.0000000000000000e+00  0.0000000000000000e+00 0.0000000000000000e+00 0.0000000000000000e+00  0.0000000000000000e+00 0.0000000000000000e+00 0.0000000000000000e+00  1.6311125935071270e-03 -3.0887750338074040e-02 0.0000000000000000e+00  -3.0977801110431084e-02 -1.0347566702959474e-03 0.0000000000000000e+00  -1.1728725247227467e-02 -3.0304995068009296e-03 0.0000000000000000e+00  1.9335188623051693e-02 -2.5063453357941187e-02 0.0000000000000000e+00  -3.1108687836608962e-02 -1.5056652365791529e-02 0.0000000000000000e+00  3.0896272127963059e-02 8.5362728686883558e-04 0.0000000000000000e+00  2.4963266496559752e-04 3.0538506240005987e-02 0.0000000000000000e+00  3.1177090130973611e-03 -1.1613434996048572e-02 0.0000000000000000e+00  0.0000000000000000e+00 0.0000000000000000e+00 0.0000000000000000e+00  3.2610586341301769e-02 -5.2491675543182847e-04 0.0000000000000000e+00  -3.5217960282960532e-03 -3.6042514498921943e-02 0.0000000000000000e+00  0.0000000000000000e+00 0.0000000000000000e+00 0.0000000000000000e+00  1.3950480726363797e-04 -3.2465913184882546e-02 0.0000000000000000e+00  0.0000000000000000e+00 0.0000000000000000e+00 0.0000000000000000e+00  1.8333846262546250e-04 3.3049843867913584e-02 0.0000000000000000e+00  -3.3171189919796465e-02 -2.7895568840032470e-04 0.0000000000000000e+00  0.0000000000000000e+00 0.0000000000000000e+00 0.0000000000000000e+00  0.0000000000000000e+00 0.0000000000000000e+00 0.0000000000000000e+00  0.0000000000000000e+00 0.0000000000000000e+00 0.0000000000000000e+00  2.2200785718764219e-05 -3.6295677989632139e-02 0.0000000000000000e+00  -6.0189637324929860e-05 3.6226617547138032e-02 0.0000000000000000e+00  3.6338323848977318e-02 9.4992362260006458e-06 0.0000000000000000e+00  3.5817107115619390e-02 -5.4021592700955617e-04 0.0000000000000000e+00  -3.6202214551160149e-02 -3.1323031968095703e-05 0.0000000000000000e+00  2.5248882207937636e-05 -3.6237192159704452e-02 0.0000000000000000e+00  4.5582408530456587e-05 3.6213276427618166e-02 0.0000000000000000e+00  -3.6378953918478521e-02 6.6072826833910482e-06 0.0000000000000000e+00  3.1807892625055900e-02 1.1745915739112488e-06 0.0000000000000000e+00  0.0000000000000000e+00 0.0000000000000000e+00 0.0000000000000000e+00  0.0000000000000000e+00 0.0000000000000000e+00 0.0000000000000000e+00  7.1509490034594287e-04 -3.3227668789741129e-02 0.0000000000000000e+00  -1.7791242037581211e-04 3.3253188403098245e-02 0.0000000000000000e+00  0.0000000000000000e+00 0.0000000000000000e+00 0.0000000000000000e+00  -3.5134743525013813e-02 4.5404407933902940e-04 0.0000000000000000e+00  0.0000000000000000e+00 0.0000000000000000e+00 0.0000000000000000e+00  0.0000000000000000e+00 0.0000000000000000e+00 0.0000000000000000e+00  3.5176927005126861e-02 1.1378523490309404e-04 0.0000000000000000e+00  -3.4911718243887398e-02 -4.2628079711049812e-05 0.0000000000000000e+00  0.0000000000000000e+00 0.0000000000000000e+00 0.0000000000000000e+00  0.0000000000000000e+00 0.0000000000000000e+00 0.0000000000000000e+00  -1.6927367936313584e-02 -2.6517143130034011e-02 0.0000000000000000e+00  -4.0313404699055943e-05 -3.6112649794003276e-02 0.0000000000000000e+00  -3.6098270700910033e-02 1.0170553872229929e-04 0.0000000000000000e+00  3.6229557700644122e-02 -9.3833760207869816e-07 0.0000000000000000e+00  3.1185613575158719e-05 3.6331252863894298e-02 0.0000000000000000e+00  -3.3240107763281457e-02 -1.6208274220167170e-04 0.0000000000000000e+00  1.9742418592664821e-04 3.2922174649409053e-02 0.0000000000000000e+00  -4.1058781387823307e-05 3.2561947011469430e-02 0.0000000000000000e+00  1.0771977066967746e-04 -3.2708327235043765e-02 0.0000000000000000e+00  4.0610899790156980e-05 -3.6121263161400526e-02 0.0000000000000000e+00  0.0000000000000000e+00 0.0000000000000000e+00 0.0000000000000000e+00  4.6387701297341293e-06 -3.6079470813492776e-02 0.0000000000000000e+00  -1.8760175062046726e-02 3.7621909722211182e-03 0.0000000000000000e+00  -2.8204481021325667e-02 1.8958847924474900e-02 0.0000000000000000e+00  3.2712710772109167e-02 1.5258979814216951e-02 0.0000000000000000e+00  -2.5420377851068602e-03 -3.4171565871301962e-02 0.0000000000000000e+00  1.0152197500212628e-02 7.1873607445367994e-05 0.0000000000000000e+00  -3.3467669582942047e-02 -3.2075701004273267e-04 0.0000000000000000e+00  1.2359116177624424e-05 -3.3407206970817518e-02 0.0000000000000000e+00  -3.3840264481664964e-04 3.3442374119454513e-02 0.0000000000000000e+00  3.3122096220479909e-02 5.1782701440523138e-05 0.0000000000000000e+00  3.3245288724206401e-02 2.5805311370412816e-05 0.0000000000000000e+00  2.9138123193421452e-04 3.5799641014237042e-02 0.0000000000000000e+00  3.3443905466858007e-02 5.6307323988990480e-04 0.0000000000000000e+00  4.5701248142139000e-05 -3.6314126876997553e-02 0.0000000000000000e+00  3.1550801527358240e-05 3.6324225108221822e-02 0.0000000000000000e+00  3.6175851387209523e-02 3.2322956810192911e-05 0.0000000000000000e+00  -3.6293752862159093e-02 6.8067942701894679e-05 0.0000000000000000e+00  -3.2517683993078833e-02 2.7813762492162960e-04 0.0000000000000000e+00  -2.8257531261850050e-04 -3.5742366975518025e-02 0.0000000000000000e+00  -2.4737948244753330e-04 -3.2251639330237530e-02 0.0000000000000000e+00  -3.5750545789480941e-02 6.7919641895861776e-04 0.0000000000000000e+00  3.6353003865559744e-02 2.7624152044469193e-05 0.0000000000000000e+00  1.2860808600292544e-05 3.6276042077439632e-02 0.0000000000000000e+00  3.5753792591302215e-02 5.6494411027538903e-04 0.0000000000000000e+00  -4.2629508953877775e-03 2.2401759856024533e-02 0.0000000000000000e+00  0.0000000000000000e+00 0.0000000000000000e+00 0.0000000000000000e+00  0.0000000000000000e+00 0.0000000000000000e+00 0.0000000000000000e+00  0.0000000000000000e+00 0.0000000000000000e+00 0.0000000000000000e+00  -1.1324595875991470e-05 3.6342456321777766e-02 0.0000000000000000e+00  3.1056684848616424e-05 3.6184966551920834e-02 0.0000000000000000e+00  4.0893317669070461e-05 -3.6229795420746121e-02 0.0000000000000000e+00  -3.6147328248598690e-02 -3.5607144437373126e-06 0.0000000000000000e+00  0.0000000000000000e+00 0.0000000000000000e+00 0.0000000000000000e+00  -1.2856092504444217e-05 -3.6306079428239359e-02 0.0000000000000000e+00  0.0000000000000000e+00 0.0000000000000000e+00 0.0000000000000000e+00  -3.2290384277382261e-02 -3.2015770362473951e-05 0.0000000000000000e+00  -6.1340344012295273e-05 -3.6227222611890215e-02 0.0000000000000000e+00  -2.8108660855089085e-03 3.3415732575611860e-02 0.0000000000000000e+00  -4.5319518506321283e-03 3.5305692038504179e-02 0.0000000000000000e+00  -3.6358266511715816e-02 5.1708295051597270e-06 0.00