<?xml version="1.0"?>
<VTKFile type="UnstructuredGrid"  version="0.1"  >
<UnstructuredGrid>
<Piece  NumberOfPoints="778" NumberOfCells="1401">
<Points>
<DataArray  type="Float64"  NumberOfComponents="3"  format="ascii">1 -1 0  6 -1 0  6 1 0  1 1 0  1 6 0  -1 6 0  -1 1 0  -6 1 0  -6 -1 0  -1 -1 0  -1 -6 0  1 -6 0  1 3.5 0  -1 3.5 0  -1 -3.5 0  1 -3.5 0  3.5 -1 0  3.5 1 0  -3.5 -1 0  -3.5 1 0  -1 -2.25 0  1 -2.25 0  2.25 -1 0  2.25 1 0  -1 2.25 0  1 2.25 0  -1 4.75 0  1 4.75 0  -4.75 -1 0  -4.75 1 0  -2.25 1 0  -2.25 -1 0  1 -4.75 0  -1 -4.75 0  4.75 1 0  4.75 -1 0  0 0 0  -2.875 0 0  -1.625 0 0  -4.125 0 0  -6 0 0  0 2.875 0  2.875 0 0  0 6 0  1.625 0 0  0 -2.875 0  0 -1.625 0  0 1.625 0  0 4.125 0  0 -6 0  0 -4.125 0  4.125 0 0  6 0 0  -0.109375 5.0625 0  -5.0625 -0.109375 0  -0.109375 -5.0625 0  5.0625 0.109375 0  0.8125 -0.1875 0  -0.1875 -0.8125 0  -0.8125 0.1875 0  -0.1875 0.8125 0  1 5.375 0  -5.375 1 0  1 -5.375 0  5.375 -1 0  0.53515625 0.46484375 0  -5.375 -1 0  -1 5.375 0  -1 -5.375 0  -0.5 -6 0  5.375 1 0  6 0.5 0  3.5 0.3046875 0  3.43125 -0.34765625 0  2.875 -1 0  4.125 1 0  0.3046875 3.5 0  -0.34765625 3.56875 0  -1 4.125 0  1 4.125 0  -0.3046875 2.25 0  0.34765625 2.18125 0  1 1.625 0  -1 -1.625 0  -0.3046875 -3.5 0  0.34765625 -3.56875 0  1 -4.125 0  0.3046875 -2.25 0  -0.34765625 -2.18125 0  -1 -4.125 0  -1 -2.875 0  1 -2.875 0  1 -1.625 0  1.625 -1 0  1.625 1 0  2.25 0.3046875 0  2.18125 -0.34765625 0  4.125 -1 0  2.875 1 0  1 2.875 0  -1 1.625 0  -1 2.875 0  -4.125 -1 0  -2.25 0.3046875 0  -2.31875 -0.34765625 0  -2.875 -1 0  -1.625 1 0  -4.125 1 0  -3.5 0.3046875 0  -3.56875 -0.34765625 0  -1.625 -1 0  -2.875 1 0  0.380626321794301 1.06853329530276 0  -1.110819327731092 -0.3739495798319328 0  0.3739495798319328 -1.110819327731092 0  1.151210293219304 0.3991939332620648 0  -0.5 -4.4375 0  0.5 -4.4375 0  5.481553398058253 -0.3712833737864077 0  0.5 4.4375 0  0.5 6 0  -0.522503783594538 -0.3265648647465863 0  -1.3125 0.5 0  -0.5 6 0  0.3265648647465863 -0.522503783594538 0  4.4375 0.5 0  4.4375 -0.5 0  0.5 -6 0  -6 -0.5 0  -5.481553398058253 0.3712833737864077 0  -4.55 -0.4296875 0  -4.4375 0.5 0  -0.5 4.4375 0  0.4792930825242718 5.026881067961165 0  0.4792930825242718 -5.026881067961165 0  -0.5 1.3125 0  1.3125 -0.5 0  -0.5 -1.3125 0  0.25 5.518539952962044 0  0.2125133872612723 -5.500076563152851 0  4.969341874373811 -0.5152550785163683 0  -4.969341874373811 0.5152550785163683 0  3.927189744345589 -0.4712876597840069 0  -5.554036458333333 -0.25 0  5.554036458333333 0.25 0  -0.4690710616438356 -5.462756849315069 0  -0.4690710616438356 5.462756849315069 0  -6 0.5 0  -1.59556436210848 -0.5 0  -3.058421751829955 -0.5 0  -0.5 2.731982421875 0  0.5 2.691578248170045 0  2.691578248170045 -0.5 0  1.641211254104555 0.5 0  0.5 -1.768017578125 0  0.5 -3.058421751829955 0  0.5 1.699267578125 0  3.018017578125 0.5 0  -0.5 -3.018017578125 0  -2.731982421875 0.5 0  6 -0.5 0  -4.050017120925308 -0.5006099332648871 0  -3.940668202764977 0.5371363767281105 0  3.940668202764977 0.5371363767281105 0  0.4517449476047904 3.958458083832335 0  -0.4517449476047904 -3.958458083832335 0  -1.809331797235023 0.5371363767281105 0  -0.4517449476047904 1.791541916167665 0  -0.0546875 4.59375 0  -5.006445312499999 -0.58984375 0  4.605643203883496 -0.04725424757281554 0  4.90625 0.5546875 0  -0.5546875 4.90625 0  0.04725424757281554 -4.605643203883496 0  -0.586116118210531 -4.995821561900013 0  -4.603710222472543 0.04846236095466061 0  -3.1875 0.65234375 0  0.6163907621110913 3.147502300973589 0  2.5625 0.65234375 0  0.6163907621110913 -2.602497699026411 0  -0.637456713551384 3.189259902731882 0  -0.637456713551384 -2.560740097268118 0  -0.34765625 0.34765625 0  -0.639453125 0.708203125 0  0.089630126953125 0.437286376953125 0  -0.4238281249999999 -1.746875 0  1.746875 -0.4238281249999999 0  -0.4238281249999999 4.003125 0  0.4238281249999999 -4.003125 0  -2.5625 -1 0  3.1875 -1 0  -0.09375 -1.21875 0  1.21875 -0.09375 0  0.4020305405760241 -0.1120343241705621 0  -0.6280191027904287 -0.7577505545748082 0  0.90625 -0.59375 0  -1.205500904741459 0.03633725387965409 0  -0.02129048848213058 1.202028574265107 0  -0.1120343241705621 -0.4020305405760241 0  1 1.3125 0  -2.003587563743074 -0.6442361556699288 0  0.6640077663259718 -1.395873598614549 0  5.6875 -1 0  0.6308138580859101 -5.592151086468728 0  -5.6875 -1 0  0.6568032075915271 5.612942566073222 0  5.616530031741774 0.6612875396772174 0  -5.6875 1 0  1.9375 1 0  -1.3125 -1 0  0.1524679547155687 -3.232579139388032 0  0.1524679547155687 2.517420860611968 0  -3.232579139388032 -0.1524679547155687 0  -1.932320553757026 -0.252759244693845 0  2.517420860611968 -0.1524679547155687 0  -0.04776045819569434 -2.464949198504599 0  -0.2420369079104247 3.187693796852321 0  3.751304711039982 -0.1203080877045035 0  -5.397601941771943 -0.609026059866711 0  1.3125 1 0  1.9375 -1 0  -0.6946315101963667 -2.018229242739021 0  -0.6946315101963667 3.731770757260979 0  1 -3.8125 0  2.014364435550335 0.6166648446293641 0  -1 5.6875 0  -1 -5.6875 0  -2.653476149871182 -0.5942957192996303 0  3.096523850128818 -0.5942957192996303 0  1 1.9375 0  -3.8125 -1 0  0.586975531244212 -0.7975955463807081 0  -0.2946248980953088 -4.743710873809568 0  2.625453376770019 0.2814788818359375 0  -3.124546623229981 0.2814788818359375 0  -0.1204856417894853 5.631800603217465 0  5.253862011026742 0.6581468962876398 0  -0.65234375 2.108701557941197 0  0.65234375 3.641298442058803 0  -0.65234375 -3.641298442058803 0  -0.25 -5.744880569758637 0  -4.4375 -1 0  -0.3166212631734941 -2.713595940002554 0  0.6591479224207506 0.1324305912687024 0  0.8660781906552419 0.6468634238104103 0  -0.9887189158197679 0.6452930723873549 0  0.3149351927204296 -1.460971774996065 0  -0.3572852727880474 -0.009629022788047503 0  2.09375 -0.6866724363772454 0  0.6866724363772454 -3.65625 0  0.6866724363772454 2.09375 0  -3.65625 -0.6866724363772454 0  -3.5371337890625 0.65234375 0  -0.1389584113023952 1.944025352615082 0  -2.151744288472698 0.65234375 0  -0.1389584113023951 -3.805974647384918 0  0.1389584113023951 3.805974647384918 0  -2.578772109813904 0.1857224367977529 0  3.171227890186096 0.1857224367977529 0  3.360315647536819 0.65234375 0  0.1857224367977528 -1.921227890186096 0  0.65234375 -2.110315647536819 0  1.894016528727564 0.2415406141485869 0  -3.738232421875 0 0  0.2516875549238616 3.139069895099618 0  -1.913724396854074 0.2011142179916434 0  0.1669456568161915 0.7843410671359501 0  -2.5625 1 0  -1 -3.1875 0  -1 2.5625 0  0.1736601499778735 4.857955663330752 0  -0.1893536587212888 2.577300639071919 0  -0.1893536587212888 -3.172699360928081 0  3.852271904453858 0.206603749322895 0  -3.8125 1 0  -0.1250095034621793 -5.421707592768541 0  3.8125 -1 0  3.617304217264373 -0.6578427703661498 0  0.2630176195580202 -2.636558318495885 0  0.2674330357770522 1.399517071108871 0  0.631726413079416 1.339254523727593 0  4.700571879807737 0.2813704945051134 0  0.7143844363649634 -3.319538455208831 0  2.430461544791169 -0.7143844363649634 0  0.7143844363649634 2.430461544791169 0  -3.319538455208831 -0.7143844363649634 0  5.687045771608623 -0.6520598572553891 0  -5.687045771608623 0.6520598572553891 0  -1.15625 -0.7048248829733235 0  3.438284572973296 -0.01860298867862281 0  -0.03021088078697859 3.451572359862192 0  2.216682837011589 -0.02159585961918548 0  -2.191580885932936 -0.03126387444658879 0  0.1857410764408683 1.895679405349457 0  3.103473238297955 -0.253270943723272 0  -2.646526761702045 -0.253270943723272 0  -2.333137350671861 -0.6791984914172315 0  -1 5.0625 0  -0.6971235589909319 5.213002544375844 0  0.01618705363819947 2.225929180591695 0  0.01618705363819947 -3.524070819408305 0  0.5690054882403073 0.7951310720450595 0  -0.5764940424412852 -3.329579265180942 0  -0.5764940424412852 2.420420734819058 0  3.8125 1 0  -5.372163860234628 0.04365139563106807 0  5.164108319316826 -0.225040894204947 0  -5.361952437854323 0.6744012088984681 0  -5.0625 1 0  5.286835586913878 -0.6616705837083201 0  -5.692815197359722 0.1186699900166531 0  5.663425996156958 -0.07763197815533956 0  -0.9219866027132193 -0.1143045829323572 0  -1.394333629759332 -0.2233077430199216 0  0.09322478991596644 -0.9616596638655462 0  5.0625 -1 0  -0.14412109375 -1.92169189453125 0  -4.28125 -0.7212148987671345 0  0.2649796277366407 0.1735162902120744 0  -4.907855692236596 0.1868230509619793 0  -1.9375 1 0  1 5.0625 0  0.6915124486819284 -5.272938212550202 0  0.683483242673902 5.284948082526911 0  2.5625 -1 0  -1 -3.8125 0  -1 1.9375 0  5.0625 1 0  -1 -1.9375 0  1 5.6875 0  1 -5.6875 0  -1.9375 -1 0  -1 -2.5625 0  -1 3.1875 0  1 -3.1875 0  1 -2.5625 0  1 2.5625 0  1 3.1875 0  -5.0625 -1 0  -1 -1.3125 0  1.3125 -1 0  -1 1.3125 0  -1 3.8125 0  -1 4.4375 0  -4.4375 1 0  4.4375 -1 0  4.4375 1 0  -1.3125 1 0  1 4.4375 0  1 -4.4375 0  -1 -5.0625 0  -1 -4.4375 0  -3.1875 1 0  2.5625 1 0  1 -1.9375 0  1 -1.3125 0  5.6875 1 0  1 3.8125 0  3.1875 1 0  -3.1875 -1 0  1 -5.0625 0  1.35138038998199 0.6675097549271188 0  -0.465625 0.986328125 0  1.435958105992309 0.2563920171199723 0  1.915914614192913 -0.145782394639918 0  -0.8764440609469509 -0.5746869313612541 0  5.355194559946098 0.01566259380337612 0  -5.69333042954964 -0.5242868300459975 0  1.78125 -0.7320750794491524 0  0.7320750794491525 -3.96875 0  -0.3959075548864684 5.166422468926435 0  -4.770522389068053 -0.2123670725088856 0  -4.714160156249999 -0.69234375 0  -4.273484403713342 -0.278160994327167 0  0.9642590244517505 0.08196089404241463 0  0.3500261717645397 -4.727285205957206 0  0.6740868006020392 -4.765147848348443 0  0.6797550207247084 -1.089747806381148 0  -5.186479934354063 0.3046329157552757 0  -5.263288238215326 -0.3369092276308425 0  -2.433484016245305 0.5442571297016638 0  0.1707808983307866 -3.82363304980935 0  -0.1554012991031027 3.867535742674252 0  4.855508096805579 -0.2283975605264581 0  3.644517238097614 0.5646428152488787 0  0.05699603874439441 -0.6452791208413911 0  -0.3550018917972689 -0.5695324323732931 0  0.6
[...]
<PointData  Vectors="u"> 
<DataArray  type="Float64"  Name="u"  NumberOfComponents="3" format="ascii">0.0000000000000000e+00 0.0000000000000000e+00 0.0000000000000000e+00  0.0000000000000000e+00 0.0000000000000000e+00 0.0000000000000000e+00  0.0000000000000000e+00 0.0000000000000000e+00 0.0000000000000000e+00  0.0000000000000000e+00 0.0000000000000000e+00 0.0000000000000000e+00  0.0000000000000000e+00 0.0000000000000000e+00 0.0000000000000000e+00  0.0000000000000000e+00 0.0000000000000000e+00 0.0000000000000000e+00  0.0000000000000000e+00 0.0000000000000000e+00 0.0000000000000000e+00  0.0000000000000000e+00 0.0000000000000000e+00 0.0000000000000000e+00  0.0000000000000000e+00 0.0000000000000000e+00 0.0000000000000000e+00  0.0000000000000000e+00 0.0000000000000000e+00 0.0000000000000000e+00  0.0000000000000000e+00 0.0000000000000000e+00 0.0000000000000000e+00  0.0000000000000000e+00 0.0000000000000000e+00 0.0000000000000000e+00  0.0000000000000000e+00 0.0000000000000000e+00 0.0000000000000000e+00  0.0000000000000000e+00 0.0000000000000000e+00 0.0000000000000000e+00  0.0000000000000000e+00 0.0000000000000000e+00 0.0000000000000000e+00  0.0000000000000000e+00 0.0000000000000000e+00 0.0000000000000000e+00  0.0000000000000000e+00 0.0000000000000000e+00 0.0000000000000000e+00  0.0000000000000000e+00 0.0000000000000000e+00 0.0000000000000000e+00  0.0000000000000000e+00 0.0000000000000000e+00 0.0000000000000000e+00  0.0000000000000000e+00 0.0000000000000000e+00 0.0000000000000000e+00  0.0000000000000000e+00 0.0000000000000000e+00 0.0000000000000000e+00  0.0000000000000000e+00 0.0000000000000000e+00 0.0000000000000000e+00  0.0000000000000000e+00 0.0000000000000000e+00 0.0000000000000000e+00  0.0000000000000000e+00 0.0000000000000000e+00 0.0000000000000000e+00  0.0000000000000000e+00 0.0000000000000000e+00 0.0000000000000000e+00  0.0000000000000000e+00 0.0000000000000000e+00 0.0000000000000000e+00  0.0000000000000000e+00 0.0000000000000000e+00 0.0000000000000000e+00  0.0000000000000000e+00 0.0000000000000000e+00 0.0000000000000000e+00  0.0000000000000000e+00 0.0000000000000000e+00 0.0000000000000000e+00  0.0000000000000000e+00 0.0000000000000000e+00 0.0000000000000000e+00  0.0000000000000000e+00 0.0000000000000000e+00 0.0000000000000000e+00  0.0000000000000000e+00 0.0000000000000000e+00 0.0000000000000000e+00  0.0000000000000000e+00 0.0000000000000000e+00 0.0000000000000000e+00  0.0000000000000000e+00 0.0000000000000000e+00 0.0000000000000000e+00  0.0000000000000000e+00 0.0000000000000000e+00 0.0000000000000000e+00  0.0000000000000000e+00 0.0000000000000000e+00 0.0000000000000000e+00  -2.0240529240543367e-04 9.8000748307059475e-05 0.0000000000000000e+00  4.9336104135783571e-02 -1.1391670518446295e-05 0.0000000000000000e+00  4.7109443180212977e-02 6.5638246285173026e-05 0.0000000000000000e+00  4.9392999996475270e-02 3.4516407603800126e-06 0.0000000000000000e+00  4.9441778501407803e-02 3.5435062127109198e-05 0.0000000000000000e+00  1.2109891274318687e-05 4.9319844362375416e-02 0.0000000000000000e+00  -4.9247808871045691e-02 4.3452143707455797e-05 0.0000000000000000e+00  3.7923284629273793e-05 4.9263353081779836e-02 0.0000000000000000e+00  -4.7205152155310043e-02 1.1719646001897192e-04 0.0000000000000000e+00  7.4263184723680151e-06 -4.9289694862900836e-02 0.0000000000000000e+00  -1.8459829480478587e-05 -4.7015524265271405e-02 0.0000000000000000e+00  4.0634125571768706e-05 4.6959839949135336e-02 0.0000000000000000e+00  3.6483265609455324e-05 4.9284005023634316e-02 0.0000000000000000e+00  3.9312753995158178e-05 -4.9281059912499495e-02 0.0000000000000000e+00  6.4715289563153545e-05 -4.9346577500363184e-02 0.0000000000000000e+00  -4.9403517811681348e-02 -1.6499316065407952e-05 0.0000000000000000e+00  -4.9364254882386695e-02 -4.5308269057781216e-05 0.0000000000000000e+00  -6.0654359623481865e-05 4.9404439848012550e-02 0.0000000000000000e+00  4.9340971786297018e-02 -6.2747531731375498e-05 0.0000000000000000e+00  -7.6835405370286267e-05 -4.9139975576475162e-02 0.0000000000000000e+00  -4.9256631060081109e-02 -5.9665037909635845e-05 0.0000000000000000e+00  -3.1929696454707335e-02 -6.6378568663695752e-03 0.0000000000000000e+00  6.3992988160796850e-03 -3.1442181382401943e-02 0.0000000000000000e+00  3.1343264140833785e-02 6.5581961907843359e-03 0.0000000000000000e+00  6.6314436371874294e-03 3.1494034988319722e-02 0.0000000000000000e+00  0.0000000000000000e+00 0.0000000000000000e+00 0.0000000000000000e+00  0.0000000000000000e+00 0.0000000000000000e+00 0.0000000000000000e+00  0.0000000000000000e+00 0.0000000000000000e+00 0.0000000000000000e+00  0.0000000000000000e+00 0.0000000000000000e+00 0.0000000000000000e+00  -2.2010441093169266e-02 1.8540876569431108e-02 0.0000000000000000e+00  0.0000000000000000e+00 0.0000000000000000e+00 0.0000000000000000e+00  0.0000000000000000e+00 0.0000000000000000e+00 0.0000000000000000e+00  0.0000000000000000e+00 0.0000000000000000e+00 0.0000000000000000e+00  6.1245563451017181e-05 -4.7028717970007225e-02 0.0000000000000000e+00  0.0000000000000000e+00 0.0000000000000000e+00 0.0000000000000000e+00  -4.9160663223192708e-02 -4.2255703786256901e-07 0.0000000000000000e+00  -4.9391722221626105e-02 6.0562796657296217e-05 0.0000000000000000e+00  -4.9274420066844543e-02 1.3674443219827171e-05 0.0000000000000000e+00  0.0000000000000000e+00 0.0000000000000000e+00 0.0000000000000000e+00  0.0000000000000000e+00 0.0000000000000000e+00 0.0000000000000000e+00  2.7261542754904224e-05 4.9271027029894970e-02 0.0000000000000000e+00  -5.7059522820746460e-06 4.9363409806449328e-02 0.0000000000000000e+00  0.0000000000000000e+00 0.0000000000000000e+00 0.0000000000000000e+00  0.0000000000000000e+00 0.0000000000000000e+00 0.0000000000000000e+00  2.3779592077434334e-04 4.9030744122656400e-02 0.0000000000000000e+00  -3.6003196068302838e-04 4.9121981007246358e-02 0.0000000000000000e+00  0.0000000000000000e+00 0.0000000000000000e+00 0.0000000000000000e+00  0.0000000000000000e+00 0.0000000000000000e+00 0.0000000000000000e+00  4.6118774957030142e-05 -4.9242171699989526e-02 0.0000000000000000e+00  1.6076882114213295e-05 -4.9310939532706273e-02 0.0000000000000000e+00  0.0000000000000000e+00 0.0000000000000000e+00 0.0000000000000000e+00  -2.1422784412072893e-04 -4.9105735265059396e-02 0.0000000000000000e+00  4.4420799149670197e-04 -4.9150543773717616e-02 0.0000000000000000e+00  0.0000000000000000e+00 0.0000000000000000e+00 0.0000000000000000e+00  0.0000000000000000e+00 0.0000000000000000e+00 0.0000000000000000e+00  0.0000000000000000e+00 0.0000000000000000e+00 0.0000000000000000e+00  0.0000000000000000e+00 0.0000000000000000e+00 0.0000000000000000e+00  0.0000000000000000e+00 0.0000000000000000e+00 0.0000000000000000e+00  0.0000000000000000e+00 0.0000000000000000e+00 0.0000000000000000e+00  -4.9007977289357109e-02 3.2409779283411891e-04 0.0000000000000000e+00  -4.9082423945732062e-02 -3.2180635423985772e-04 0.0000000000000000e+00  0.0000000000000000e+00 0.0000000000000000e+00 0.0000000000000000e+00  0.0000000000000000e+00 0.0000000000000000e+00 0.0000000000000000e+00  0.0000000000000000e+00 0.0000000000000000e+00 0.0000000000000000e+00  0.0000000000000000e+00 0.0000000000000000e+00 0.0000000000000000e+00  0.0000000000000000e+00 0.0000000000000000e+00 0.0000000000000000e+00  0.0000000000000000e+00 0.0000000000000000e+00 0.0000000000000000e+00  4.9129784724524485e-02 3.4283045144601747e-04 0.0000000000000000e+00  4.9218407501856132e-02 -2.9474269141315591e-04 0.0000000000000000e+00  0.0000000000000000e+00 0.0000000000000000e+00 0.0000000000000000e+00  0.0000000000000000e+00 0.0000000000000000e+00 0.0000000000000000e+00  0.0000000000000000e+00 0.0000000000000000e+00 0.0000000000000000e+00  4.9110919310986802e-02 8.3677799079442635e-05 0.0000000000000000e+00  4.9346885305760847e-02 2.3298428940362968e-05 0.0000000000000000e+00  0.0000000000000000e+00 0.0000000000000000e+00 0.0000000000000000e+00  0.0000000000000000e+00 0.0000000000000000e+00 0.0000000000000000e+00  -9.1689188959317245e-03 4.1542351278055945e-02 0.0000000000000000e+00  4.2769660313572898e-02 -9.0078759243054363e-03 0.0000000000000000e+00  -8.5481670864212995e-03 -4.3187936684614348e-02 0.0000000000000000e+00  -4.3700263045596557e-02 8.0754832828852530e-03 0.0000000000000000e+00  4.1661466866739549e-05 -4.6909906140877575e-02 0.0000000000000000e+00  -2.3349037700632198e-06 -4.9344148352312364e-02 0.0000000000000000e+00  -4.9337117828141083e-02 -6.5572751406902210e-05 0.0000000000000000e+00  2.9916292080406851e-06 4.9256574922044570e-02 0.0000000000000000e+00  4.7617127227386621e-05 4.9203238392412398e-02 0.0000000000000000e+00  2.0843589656782506e-02 -1.3030551934686010e-02 0.0000000000000000e+00  4.7538549032303944e-02 6.6922272030580246e-03 0.0000000000000000e+00  2.9322025671060270e-05 4.7014302170445957e-02 0.0000000000000000e+00  -1.2495098782847595e-02 -2.0785986513154428e-02 0.0000000000000000e+00  -4.9184302209809939e-02 -2.3702174781432756e-05 0.0000000000000000e+00  -4.9375003253414061e-02 8.3988988042049045e-06 0.0000000000000000e+00  3.3923121788656478e-05 -4.9187067923443607e-02 0.0000000000000000e+00  4.9448759478472916e-02 1.4992000549210606e-06 0.0000000000000000e+00  4.9248262021422060e-02 5.2376299616171413e-05 0.0000000000000000e+00  4.9427226927255617e-02 6.2405834470117829e-06 0.0000000000000000e+00  4.6723433560736702e-02 -1.4969703237114896e-05 0.0000000000000000e+00  2.3654552847014418e-05 4.9083583445308450e-02 0.0000000000000000e+00  -3.7075669374260034e-05 4.9373959794561890e-02 0.0000000000000000e+00  -2.8411308309756736e-05 -4.9294945084635500e-02 0.0000000000000000e+00  7.2373493905589078e-03 4.8879544396089686e-02 0.0000000000000000e+00  -4.8056036956167940e-02 -6.7495098790224875e-03 0.0000000000000000e+00  6.6851362554400003e-03 -4.7587352473500190e-02 0.0000000000000000e+00  3.2251245228854977e-05 4.9265959820700950e-02 0.0000000000000000e+00  -2.3772670409177895e-05 -4.9374691028525292e-02 0.0000000000000000e+00  -4.9425659873870605e-02 -6.2020752397611858e-05 0.0000000000000000e+00  4.7198979670386082e-02 6.3202230789607269e-06 0.0000000000000000e+00  -4.9267722560267853e-02 -2.6540894768961252e-05 0.0000000000000000e+00  4.9320052730791882e-02 -5.9886299466258908e-05 0.0000000000000000e+00  -4.9312386363587847e-02 -1.3277635426338889e-04 0.0000000000000000e+00  3.8935527412947080e-06 -4.9173348971543789e-02 0.0000000000000000e+00  1.2527757083322126e-05 4.9205211265247524e-02 0.0000000000000000e+00  4.7744276871064716e-02 1.1342177918492566e-04 0.0000000000000000e+00  4.9071006517700674e-02 -2.5998210818080057e-03 0.0000000000000000e+00  4.9351888965143594e-02 1.2527269130517916e-05 0.0000000000000000e+00  -8.9129349723579445e-07 4.9296637495626273e-02 0.0000000000000000e+00  -9.1628278330118716e-05 4.9171701281527626e-02 0.0000000000000000e+00  -4.9284099140160846e-02 -2.4815738808083893e-05 0.0000000000000000e+00  -4.9149229909879515e-02 2.5786936039921418e-03 0.0000000000000000e+00  -1.5613484257392272e-03 -4.8972155623751942e-02 0.0000000000000000e+00  -6.6388114897056923e-06 -4.9220526170682323e-02 0.0000000000000000e+00  -1.7917527850523287e-03 4.9310508466233333e-02 0.0000000000000000e+00  -4.9201291656538408e-02 9.8487933174682812e-05 0.0000000000000000e+00  9.2310998766571294e-05 -4.9215665888199013e-02 0.0000000000000000e+00  4.9279447141904340e-02 3.4203592184674449e-06 0.0000000000000000e+00  -4.7582985859718180e-02 -4.3236260724501075e-05 0.0000000000000000e+00  4.9355368941701575e-02 -4.2079981713731346e-06 0.0000000000000000e+00  4.7318566913273921e-02 -1.7113803253911345e-04 0.0000000000000000e+00  -4.7312885176348407e-02 -3.6528561469048430e-04 0.0000000000000000e+00  3.1416780956810104e-05 4.9247494579347517e-02 0.0000000000000000e+00  7.7209256518256329e-05 -4.9242592162341760e-02 0.0000000000000000e+00  4.7076719686437993e-02 1.3535169290379064e-03 0.0000000000000000e+00  1.4465869719906973e-03 4.8680041081553500e-02 0.0000000000000000e+00  5.4572986579310914e-05 4.9317390367494704e-02 0.0000000000000000e+00  4.7750582416183900e-02 6.5214713659105420e-05 0.0000000000000000e+00  -4.9383469418174189e-02 -8.4297392802534375e-06 0.0000000000000000e+00  -4.4306857127491536e-02 7.9944256624909642e-05 0.0000000000000000e+00  6.1338389666098407e-05 4.3272267500317450e-02 0.0000000000000000e+00  -1.1402484738231727e-05 -4.9405580300777963e-02 0.0000000000000000e+00  -1.8749138927133467e-04 -4.3894880459650613e-02 0.0000000000000000e+00  4.9411229737015297e-02 -3.4412594237752221e-05 0.0000000000000000e+00  4.3861901734426841e-02 1.0218767168016398e-04 0.0000000000000000e+00  2.9087910768884353e-05 4.4705627659843990e-02 0.0000000000000000e+00  -4.8466252148741208e-02 2.7379194246144033e-04 0.0000000000000000e+00  -1.5626070242668382e-04 -4.4640430260952969e-02 0.0000000000000000e+00  2.0781579182850210e-04 4.5098427389402354e-02 0.0000000000000000e+00  -7.5137048060023540e-05 -4.5128485739562477e-02 0.0000000000000000e+00  1.3725641685935283e-02 1.3494396515214259e-02 0.0000000000000000e+00  2.6167159105538108e-02 3.0186415410722069e-02 0.0000000000000000e+00  -3.5205977145482147e-03 1.7211870619497846e-02 0.0000000000000000e+00  1.7402199186015742e-03 -4.8717023994734932e-02 0.0000000000000000e+00  -4.8577070234147875e-02 -1.5706375664531771e-03 0.0000000000000000e+00  -2.3016357494673172e-05 4.9164835193088896e-02 0.0000000000000000e+00  4.9197896378971967e-07 -4.9253494105316931e-02 0.0000000000000000e+00  0.0000000000000000e+00 0.0000000000000000e+00 0.0000000000000000e+00  0.0000000000000000e+00 0.0000000000000000e+00 0.0000000000000000e+00  2.1839888083525615e-03 -4.2202806101970677e-02 0.0000000000000000e+00  -4.2221327918543321e-02 -1.4687640287518711e-03 0.0000000000000000e+00  -1.6033161699890271e-02 -4.1807387294721162e-03 0.0000000000000000e+00  2.6207135954335131e-02 -3.4225756253141476e-02 0.0000000000000000e+00  -4.2582592300340165e-02 -2.0228001648936719e-02 0.0000000000000000e+00  4.2061629889110760e-02 1.0813047848182516e-03 0.0000000000000000e+00  3.9380166858815765e-04 4.1662059061106163e-02 0.0000000000000000e+00  4.2964230444842069e-03 -1.5874438719962091e-02 0.0000000000000000e+00  0.0000000000000000e+00 0.0000000000000000e+00 0.0000000000000000e+00  4.5380495960959243e-02 -7.0895137949199705e-04 0.0000000000000000e+00  -4.2213283295160931e-03 -4.9168662538298394e-02 0.0000000000000000e+00  0.0000000000000000e+00 0.0000000000000000e+00 0.0000000000000000e+00  1.9318720338329772e-04 -4.5289062301053902e-02 0.0000000000000000e+00  0.0000000000000000e+00 0.0000000000000000e+00 0.0000000000000000e+00  2.6057058753664478e-04 4.5926855673256765e-02 0.0000000000000000e+00  -4.6079722197257714e-02 -3.9526570286269286e-04 0.0000000000000000e+00  0.0000000000000000e+00 0.0000000000000000e+00 0.0000000000000000e+00  0.0000000000000000e+00 0.0000000000000000e+00 0.0000000000000000e+00  0.0000000000000000e+00 0.0000000000000000e+00 0.0000000000000000e+00  3.1508480034430497e-05 -4.9305450653889034e-02 0.0000000000000000e+00  -7.3993324077251899e-05 4.9221752765721799e-02 0.0000000000000000e+00  4.9351564825373388e-02 1.3489926584480090e-05 0.0000000000000000e+00  4.8739130304134619e-02 -7.0049228188842920e-04 0.0000000000000000e+00  -4.9179463787506005e-02 -3.9021739473271256e-05 0.0000000000000000e+00  3.3155712126017101e-05 -4.9237407383024928e-02 0.0000000000000000e+00  6.7699633946802337e-05 4.9305104505962503e-02 0.0000000000000000e+00  -4.9418488908577064e-02 8.1693482388279405e-06 0.0000000000000000e+00  4.4540279550848910e-02 2.8150385679280211e-06 0.0000000000000000e+00  0.0000000000000000e+00 0.0000000000000000e+00 0.0000000000000000e+00  0.0000000000000000e+00 0.0000000000000000e+00 0.0000000000000000e+00  9.2210620610537562e-04 -4.6258053784058811e-02 0.0000000000000000e+00  -2.5323455584688531e-04 4.6370175745060672e-02 0.0000000000000000e+00  0.0000000000000000e+00 0.0000000000000000e+00 0.0000000000000000e+00  -4.8025604899974178e-02 5.7276709640145893e-04 0.0000000000000000e+00  0.0000000000000000e+00 0.0000000000000000e+00 0.0000000000000000e+00  0.0000000000000000e+00 0.0000000000000000e+00 0.0000000000000000e+00  4.7960089578916253e-02 1.7351942652621768e-04 0.0000000000000000e+00  -4.7605861665352772e-02 -5.1803695215984809e-05 0.0000000000000000e+00  0.0000000000000000e+00 0.0000000000000000e+00 0.0000000000000000e+00  0.0000000000000000e+00 0.0000000000000000e+00 0.0000000000000000e+00  -2.3063821656700553e-02 -3.6264067651042307e-02 0.0000000000000000e+00  -7.0524304813649667e-05 -4.9294201233274437e-02 0.0000000000000000e+00  -4.9148765970214586e-02 1.1642838269806179e-04 0.0000000000000000e+00  4.9282788653517741e-02 -7.8818189137968911e-06 0.0000000000000000e+00  4.3721920332842363e-05 4.9339484623205455e-02 0.0000000000000000e+00  -4.6365240892222478e-02 -2.1091425140435627e-04 0.0000000000000000e+00  2.5244373394566513e-04 4.6036763267308371e-02 0.0000000000000000e+00  -9.0420629851468742e-05 4.5336750346340243e-02 0.0000000000000000e+00  1.5379604140632020e-04 -4.5709616856888055e-02 0.0000000000000000e+00  5.7597113894356170e-05 -4.9200643655265497e-02 0.0000000000000000e+00  0.0000000000000000e+00 0.0000000000000000e+00 0.0000000000000000e+00  5.5984661594940476e-06 -4.9196419655910442e-02 0.0000000000000000e+00  -2.5739352613753833e-02 5.0694582358928901e-03 0.0000000000000000e+00  -3.8531347485391471e-02 2.5801118971260920e-02 0.0000000000000000e+00  4.4790015437808264e-02 2.0714462481092336e-02 0.0000000000000000e+00  -3.3092459206518422e-03 -4.6560094015164082e-02 0.0000000000000000e+00  1.3935263266320328e-02 -3.3092268325247263e-05 0.0000000000000000e+00  -4.6491858940073807e-02 -4.1294353466994659e-04 0.0000000000000000e+00  1.6598558138067925e-05 -4.6348449533331872e-02 0.0000000000000000e+00  -4.3511884506357561e-04 4.6462349139795141e-02 0.0000000000000000e+00  4.6062626284617172e-02 8.2214352814588291e-05 0.0000000000000000e+00  4.6447221555315214e-02 6.2660756504256821e-05 0.0000000000000000e+00  3.8434574249669213e-04 4.8670214683545460e-02 0.0000000000000000e+00  4.6838326859905237e-02 7.0932343705000088e-04 0.0000000000000000e+00  5.5005485686552648e-05 -4.9323821142699315e-02 0.0000000000000000e+00  4.0210019527815017e-05 4.9335546176331083e-02 0.0000000000000000e+00  4.9208113278184785e-02 3.1123034990891451e-05 0.0000000000000000e+00  -4.9283160722542331e-02 9.2961863567945512e-05 0.0000000000000000e+00  -4.5558051638350840e-02 4.0538748173272549e-04 0.0000000000000000e+00  -3.7808142255645879e-04 -4.8582021942396962e-02 0.0000000000000000e+00  -3.0061393350538912e-04 -4.5168684534693575e-02 0.0000000000000000e+00  -4.8621471742176584e-02 8.6442339031116925e-04 0.0000000000000000e+00  4.9376748433609549e-02 3.4356769471344831e-05 0.0000000000000000e+00  1.9650916570567138e-05 4.9332431696851267e-02 0.0000000000000000e+00  4.8613649406325246e-02 7.2329434355649909e-04 0.0000000000000000e+00  -5.8565206917570983e-03 3.0611755883010905e-02 0.0000000000000000e+00  0.0000000000000000e+00 0.0000000000000000e+00 0.0000000000000000e+00  0.0000000000000000e+00 0.0000000000000000e+00 0.0000000000000000e+00  0.0000000000000000e+00 0.0000000000000000e+00 0.0000000000000000e+00  -1.3146774445675443e-05 4.9350390558073103e-02 0.0000000000000000e+00  4.0924364981350152e-05 4.9174918534640871e-02 0.0000000000000000e+00  5.2405559929771207e-05 -4.9218412399593618e-02 0.0000000000000000e+00  -4.9237465862951038e-02 1.1255976711937392e-05 0.0000000000000000e+00  0.0000000000000000e+00 0.0000000000000000e+00 0.0000000000000000e+00  -2.1907976642236137e-05 -4.9306741250951400e-02 0.0000000000000000e+00  0.0000000000000000e+00 0.0000000000000000e+00 0.0000000000000000e+00  -4.5070174025184928e-02 -2.6757017926823337e-05 0.0000000000000000e+00  -7.5501390234263897e-05 -4.9259574145276631e-02 0.0000000000000000e+00  -3.6577990524565311e-03 4.5609808172725308e-02 0.0000000000000000e+00  -5.5673896419087387e-03 4.8045834994975237e-02 0.0000000000000000e+00  -4.9437117075752560e-02 6.6049310844986336e-06 0