<?xml version="1.0"?>
<VTKFile type="UnstructuredGrid"  version="0.1"  >
<UnstructuredGrid>
<Piece  NumberOfPoints="778" NumberOfCells="1401">
<Points>
<DataArray  type="Float64"  NumberOfComponents="3"  format="ascii">1 -1 0  6 -1 0  6 1 0  1 1 0  1 6 0  -1 6 0  -1 1 0  -6 1 0  -6 -1 0  -1 -1 0  -1 -6 0  1 -6 0  1 3.5 0  -1 3.5 0  -1 -3.5 0  1 -3.5 0  3.5 -1 0  3.5 1 0  -3.5 -1 0  -3.5 1 0  -1 -2.25 0  1 -2.25 0  2.25 -1 0  2.25 1 0  -1 2.25 0  1 2.25 0  -1 4.75 0  1 4.75 0  -4.75 -1 0  -4.75 1 0  -2.25 1 0  -2.25 -1 0  1 -4.75 0  -1 -4.75 0  4.75 1 0  4.75 -1 0  0 0 0  -2.875 0 0  -1.625 0 0  -4.125 0 0  -6 0 0  0 2.875 0  2.875 0 0  0 6 0  1.625 0 0  0 -2.875 0  0 -1.625 0  0 1.625 0  0 4.125 0  0 -6 0  0 -4.125 0  4.125 0 0  6 0 0  -0.109375 5.0625 0  -5.0625 -0.109375 0  -0.109375 -5.0625 0  5.0625 0.109375 0  0.8125 -0.1875 0  -0.1875 -0.8125 0  -0.8125 0.1875 0  -0.1875 0.8125 0  1 5.375 0  -5.375 1 0  1 -5.375 0  5.375 -1 0  0.53515625 0.46484375 0  -5.375 -1 0  -1 5.375 0  -1 -5.375 0  -0.5 -6 0  5.375 1 0  6 0.5 0  3.5 0.3046875 0  3.43125 -0.34765625 0  2.875 -1 0  4.125 1 0  0.3046875 3.5 0  -0.34765625 3.56875 0  -1 4.125 0  1 4.125 0  -0.3046875 2.25 0  0.34765625 2.18125 0  1 1.625 0  -1 -1.625 0  -0.3046875 -3.5 0  0.34765625 -3.56875 0  1 -4.125 0  0.3046875 -2.25 0  -0.34765625 -2.18125 0  -1 -4.125 0  -1 -2.875 0  1 -2.875 0  1 -1.625 0  1.625 -1 0  1.625 1 0  2.25 0.3046875 0  2.18125 -0.34765625 0  4.125 -1 0  2.875 1 0  1 2.875 0  -1 1.625 0  -1 2.875 0  -4.125 -1 0  -2.25 0.3046875 0  -2.31875 -0.34765625 0  -2.875 -1 0  -1.625 1 0  -4.125 1 0  -3.5 0.3046875 0  -3.56875 -0.34765625 0  -1.625 -1 0  -2.875 1 0  0.380626321794301 1.06853329530276 0  -1.110819327731092 -0.3739495798319328 0  0.3739495798319328 -1.110819327731092 0  1.151210293219304 0.3991939332620648 0  -0.5 -4.4375 0  0.5 -4.4375 0  5.481553398058253 -0.3712833737864077 0  0.5 4.4375 0  0.5 6 0  -0.522503783594538 -0.3265648647465863 0  -1.3125 0.5 0  -0.5 6 0  0.3265648647465863 -0.522503783594538 0  4.4375 0.5 0  4.4375 -0.5 0  0.5 -6 0  -6 -0.5 0  -5.481553398058253 0.3712833737864077 0  -4.55 -0.4296875 0  -4.4375 0.5 0  -0.5 4.4375 0  0.4792930825242718 5.026881067961165 0  0.4792930825242718 -5.026881067961165 0  -0.5 1.3125 0  1.3125 -0.5 0  -0.5 -1.3125 0  0.25 5.518539952962044 0  0.2125133872612723 -5.500076563152851 0  4.969341874373811 -0.5152550785163683 0  -4.969341874373811 0.5152550785163683 0  3.927189744345589 -0.4712876597840069 0  -5.554036458333333 -0.25 0  5.554036458333333 0.25 0  -0.4690710616438356 -5.462756849315069 0  -0.4690710616438356 5.462756849315069 0  -6 0.5 0  -1.59556436210848 -0.5 0  -3.058421751829955 -0.5 0  -0.5 2.731982421875 0  0.5 2.691578248170045 0  2.691578248170045 -0.5 0  1.641211254104555 0.5 0  0.5 -1.768017578125 0  0.5 -3.058421751829955 0  0.5 1.699267578125 0  3.018017578125 0.5 0  -0.5 -3.018017578125 0  -2.731982421875 0.5 0  6 -0.5 0  -4.050017120925308 -0.5006099332648871 0  -3.940668202764977 0.5371363767281105 0  3.940668202764977 0.5371363767281105 0  0.4517449476047904 3.958458083832335 0  -0.4517449476047904 -3.958458083832335 0  -1.809331797235023 0.5371363767281105 0  -0.4517449476047904 1.791541916167665 0  -0.0546875 4.59375 0  -5.006445312499999 -0.58984375 0  4.605643203883496 -0.04725424757281554 0  4.90625 0.5546875 0  -0.5546875 4.90625 0  0.04725424757281554 -4.605643203883496 0  -0.586116118210531 -4.995821561900013 0  -4.603710222472543 0.04846236095466061 0  -3.1875 0.65234375 0  0.6163907621110913 3.147502300973589 0  2.5625 0.65234375 0  0.6163907621110913 -2.602497699026411 0  -0.637456713551384 3.189259902731882 0  -0.637456713551384 -2.560740097268118 0  -0.34765625 0.34765625 0  -0.639453125 0.708203125 0  0.089630126953125 0.437286376953125 0  -0.4238281249999999 -1.746875 0  1.746875 -0.4238281249999999 0  -0.4238281249999999 4.003125 0  0.4238281249999999 -4.003125 0  -2.5625 -1 0  3.1875 -1 0  -0.09375 -1.21875 0  1.21875 -0.09375 0  0.4020305405760241 -0.1120343241705621 0  -0.6280191027904287 -0.7577505545748082 0  0.90625 -0.59375 0  -1.205500904741459 0.03633725387965409 0  -0.02129048848213058 1.202028574265107 0  -0.1120343241705621 -0.4020305405760241 0  1 1.3125 0  -2.003587563743074 -0.6442361556699288 0  0.6640077663259718 -1.395873598614549 0  5.6875 -1 0  0.6308138580859101 -5.592151086468728 0  -5.6875 -1 0  0.6568032075915271 5.612942566073222 0  5.616530031741774 0.6612875396772174 0  -5.6875 1 0  1.9375 1 0  -1.3125 -1 0  0.1524679547155687 -3.232579139388032 0  0.1524679547155687 2.517420860611968 0  -3.232579139388032 -0.1524679547155687 0  -1.932320553757026 -0.252759244693845 0  2.517420860611968 -0.1524679547155687 0  -0.04776045819569434 -2.464949198504599 0  -0.2420369079104247 3.187693796852321 0  3.751304711039982 -0.1203080877045035 0  -5.397601941771943 -0.609026059866711 0  1.3125 1 0  1.9375 -1 0  -0.6946315101963667 -2.018229242739021 0  -0.6946315101963667 3.731770757260979 0  1 -3.8125 0  2.014364435550335 0.6166648446293641 0  -1 5.6875 0  -1 -5.6875 0  -2.653476149871182 -0.5942957192996303 0  3.096523850128818 -0.5942957192996303 0  1 1.9375 0  -3.8125 -1 0  0.586975531244212 -0.7975955463807081 0  -0.2946248980953088 -4.743710873809568 0  2.625453376770019 0.2814788818359375 0  -3.124546623229981 0.2814788818359375 0  -0.1204856417894853 5.631800603217465 0  5.253862011026742 0.6581468962876398 0  -0.65234375 2.108701557941197 0  0.65234375 3.641298442058803 0  -0.65234375 -3.641298442058803 0  -0.25 -5.744880569758637 0  -4.4375 -1 0  -0.3166212631734941 -2.713595940002554 0  0.6591479224207506 0.1324305912687024 0  0.8660781906552419 0.6468634238104103 0  -0.9887189158197679 0.6452930723873549 0  0.3149351927204296 -1.460971774996065 0  -0.3572852727880474 -0.009629022788047503 0  2.09375 -0.6866724363772454 0  0.6866724363772454 -3.65625 0  0.6866724363772454 2.09375 0  -3.65625 -0.6866724363772454 0  -3.5371337890625 0.65234375 0  -0.1389584113023952 1.944025352615082 0  -2.151744288472698 0.65234375 0  -0.1389584113023951 -3.805974647384918 0  0.1389584113023951 3.805974647384918 0  -2.578772109813904 0.1857224367977529 0  3.171227890186096 0.1857224367977529 0  3.360315647536819 0.65234375 0  0.1857224367977528 -1.921227890186096 0  0.65234375 -2.110315647536819 0  1.894016528727564 0.2415406141485869 0  -3.738232421875 0 0  0.2516875549238616 3.139069895099618 0  -1.913724396854074 0.2011142179916434 0  0.1669456568161915 0.7843410671359501 0  -2.5625 1 0  -1 -3.1875 0  -1 2.5625 0  0.1736601499778735 4.857955663330752 0  -0.1893536587212888 2.577300639071919 0  -0.1893536587212888 -3.172699360928081 0  3.852271904453858 0.206603749322895 0  -3.8125 1 0  -0.1250095034621793 -5.421707592768541 0  3.8125 -1 0  3.617304217264373 -0.6578427703661498 0  0.2630176195580202 -2.636558318495885 0  0.2674330357770522 1.399517071108871 0  0.631726413079416 1.339254523727593 0  4.700571879807737 0.2813704945051134 0  0.7143844363649634 -3.319538455208831 0  2.430461544791169 -0.7143844363649634 0  0.7143844363649634 2.430461544791169 0  -3.319538455208831 -0.7143844363649634 0  5.687045771608623 -0.6520598572553891 0  -5.687045771608623 0.6520598572553891 0  -1.15625 -0.7048248829733235 0  3.438284572973296 -0.01860298867862281 0  -0.03021088078697859 3.451572359862192 0  2.216682837011589 -0.02159585961918548 0  -2.191580885932936 -0.03126387444658879 0  0.1857410764408683 1.895679405349457 0  3.103473238297955 -0.253270943723272 0  -2.646526761702045 -0.253270943723272 0  -2.333137350671861 -0.6791984914172315 0  -1 5.0625 0  -0.6971235589909319 5.213002544375844 0  0.01618705363819947 2.225929180591695 0  0.01618705363819947 -3.524070819408305 0  0.5690054882403073 0.7951310720450595 0  -0.5764940424412852 -3.329579265180942 0  -0.5764940424412852 2.420420734819058 0  3.8125 1 0  -5.372163860234628 0.04365139563106807 0  5.164108319316826 -0.225040894204947 0  -5.361952437854323 0.6744012088984681 0  -5.0625 1 0  5.286835586913878 -0.6616705837083201 0  -5.692815197359722 0.1186699900166531 0  5.663425996156958 -0.07763197815533956 0  -0.9219866027132193 -0.1143045829323572 0  -1.394333629759332 -0.2233077430199216 0  0.09322478991596644 -0.9616596638655462 0  5.0625 -1 0  -0.14412109375 -1.92169189453125 0  -4.28125 -0.7212148987671345 0  0.2649796277366407 0.1735162902120744 0  -4.907855692236596 0.1868230509619793 0  -1.9375 1 0  1 5.0625 0  0.6915124486819284 -5.272938212550202 0  0.683483242673902 5.284948082526911 0  2.5625 -1 0  -1 -3.8125 0  -1 1.9375 0  5.0625 1 0  -1 -1.9375 0  1 5.6875 0  1 -5.6875 0  -1.9375 -1 0  -1 -2.5625 0  -1 3.1875 0  1 -3.1875 0  1 -2.5625 0  1 2.5625 0  1 3.1875 0  -5.0625 -1 0  -1 -1.3125 0  1.3125 -1 0  -1 1.3125 0  -1 3.8125 0  -1 4.4375 0  -4.4375 1 0  4.4375 -1 0  4.4375 1 0  -1.3125 1 0  1 4.4375 0  1 -4.4375 0  -1 -5.0625 0  -1 -4.4375 0  -3.1875 1 0  2.5625 1 0  1 -1.9375 0  1 -1.3125 0  5.6875 1 0  1 3.8125 0  3.1875 1 0  -3.1875 -1 0  1 -5.0625 0  1.35138038998199 0.6675097549271188 0  -0.465625 0.986328125 0  1.435958105992309 0.2563920171199723 0  1.915914614192913 -0.145782394639918 0  -0.8764440609469509 -0.5746869313612541 0  5.355194559946098 0.01566259380337612 0  -5.69333042954964 -0.5242868300459975 0  1.78125 -0.7320750794491524 0  0.7320750794491525 -3.96875 0  -0.3959075548864684 5.166422468926435 0  -4.770522389068053 -0.2123670725088856 0  -4.714160156249999 -0.69234375 0  -4.273484403713342 -0.278160994327167 0  0.9642590244517505 0.08196089404241463 0  0.3500261717645397 -4.727285205957206 0  0.6740868006020392 -4.765147848348443 0  0.6797550207247084 -1.089747806381148 0  -5.186479934354063 0.3046329157552757 0  -5.263288238215326 -0.3369092276308425 0  -2.433484016245305 0.5442571297016638 0  0.1707808983307866 -3.82363304980935 0  -0.1554012991031027 3.867535742674252 0  4.855508096805579 -0.2283975605264581 0  3.644517238097614 0.5646428152488787 0  0.05699603874439441 -0.6452791208413911 0  -0.3550018917972689 -0.5695324323732931 0  0.6
[...]
<PointData  Vectors="u"> 
<DataArray  type="Float64"  Name="u"  NumberOfComponents="3" format="ascii">0.0000000000000000e+00 0.0000000000000000e+00 0.0000000000000000e+00  0.0000000000000000e+00 0.0000000000000000e+00 0.0000000000000000e+00  0.0000000000000000e+00 0.0000000000000000e+00 0.0000000000000000e+00  0.0000000000000000e+00 0.0000000000000000e+00 0.0000000000000000e+00  0.0000000000000000e+00 0.0000000000000000e+00 0.0000000000000000e+00  0.0000000000000000e+00 0.0000000000000000e+00 0.0000000000000000e+00  0.0000000000000000e+00 0.0000000000000000e+00 0.0000000000000000e+00  0.0000000000000000e+00 0.0000000000000000e+00 0.0000000000000000e+00  0.0000000000000000e+00 0.0000000000000000e+00 0.0000000000000000e+00  0.0000000000000000e+00 0.0000000000000000e+00 0.0000000000000000e+00  0.0000000000000000e+00 0.0000000000000000e+00 0.0000000000000000e+00  0.0000000000000000e+00 0.0000000000000000e+00 0.0000000000000000e+00  0.0000000000000000e+00 0.0000000000000000e+00 0.0000000000000000e+00  0.0000000000000000e+00 0.0000000000000000e+00 0.0000000000000000e+00  0.0000000000000000e+00 0.0000000000000000e+00 0.0000000000000000e+00  0.0000000000000000e+00 0.0000000000000000e+00 0.0000000000000000e+00  0.0000000000000000e+00 0.0000000000000000e+00 0.0000000000000000e+00  0.0000000000000000e+00 0.0000000000000000e+00 0.0000000000000000e+00  0.0000000000000000e+00 0.0000000000000000e+00 0.0000000000000000e+00  0.0000000000000000e+00 0.0000000000000000e+00 0.0000000000000000e+00  0.0000000000000000e+00 0.0000000000000000e+00 0.0000000000000000e+00  0.0000000000000000e+00 0.0000000000000000e+00 0.0000000000000000e+00  0.0000000000000000e+00 0.0000000000000000e+00 0.0000000000000000e+00  0.0000000000000000e+00 0.0000000000000000e+00 0.0000000000000000e+00  0.0000000000000000e+00 0.0000000000000000e+00 0.0000000000000000e+00  0.0000000000000000e+00 0.0000000000000000e+00 0.0000000000000000e+00  0.0000000000000000e+00 0.0000000000000000e+00 0.0000000000000000e+00  0.0000000000000000e+00 0.0000000000000000e+00 0.0000000000000000e+00  0.0000000000000000e+00 0.0000000000000000e+00 0.0000000000000000e+00  0.0000000000000000e+00 0.0000000000000000e+00 0.0000000000000000e+00  0.0000000000000000e+00 0.0000000000000000e+00 0.0000000000000000e+00  0.0000000000000000e+00 0.0000000000000000e+00 0.0000000000000000e+00  0.0000000000000000e+00 0.0000000000000000e+00 0.0000000000000000e+00  0.0000000000000000e+00 0.0000000000000000e+00 0.0000000000000000e+00  0.0000000000000000e+00 0.0000000000000000e+00 0.0000000000000000e+00  0.0000000000000000e+00 0.0000000000000000e+00 0.0000000000000000e+00  -1.4392282238618584e-04 4.8025911605417830e-05 0.0000000000000000e+00  2.5076766081675545e-02 -6.8784155814888555e-06 0.0000000000000000e+00  2.3867732687619377e-02 6.0481843876049598e-05 0.0000000000000000e+00  2.5093392000854364e-02 4.5413270512487126e-07 0.0000000000000000e+00  2.5118812155035149e-02 2.1229595000928772e-05 0.0000000000000000e+00  6.0618746107983924e-06 2.5042670629119020e-02 0.0000000000000000e+00  -2.5018697922862682e-02 2.7612546494832321e-05 0.0000000000000000e+00  2.2210842436876700e-05 2.5040759941544959e-02 0.0000000000000000e+00  -2.3917643018310546e-02 7.9976008093773069e-05 0.0000000000000000e+00  7.3025756092725101e-06 -2.5041222294227866e-02 0.0000000000000000e+00  -2.7510855206397052e-05 -2.3745092451388335e-02 0.0000000000000000e+00  2.5351958205725765e-05 2.3734398186029560e-02 0.0000000000000000e+00  2.4680980636217761e-05 2.5048333642692430e-02 0.0000000000000000e+00  2.4042113315635102e-05 -2.5043048466925993e-02 0.0000000000000000e+00  3.4779644738068490e-05 -2.5081643634956099e-02 0.0000000000000000e+00  -2.5105009003910581e-02 -5.4005880845033561e-06 0.0000000000000000e+00  -2.5069652630398485e-02 -2.4091494608643346e-05 0.0000000000000000e+00  -2.7686257904966459e-05 2.5109223895489596e-02 0.0000000000000000e+00  2.5047232341384073e-02 -2.4716500366031224e-05 0.0000000000000000e+00  -3.8169110759289334e-05 -2.4900492357069714e-02 0.0000000000000000e+00  -2.4980125969669750e-02 -2.8332831966919774e-05 0.0000000000000000e+00  -1.6131300683807217e-02 -3.4219059582816982e-03 0.0000000000000000e+00  3.1702200714649321e-03 -1.5768798158685322e-02 0.0000000000000000e+00  1.5713612194267347e-02 3.4293586471219563e-03 0.0000000000000000e+00  3.3776667932687143e-03 1.5790696448044612e-02 0.0000000000000000e+00  0.0000000000000000e+00 0.0000000000000000e+00 0.0000000000000000e+00  0.0000000000000000e+00 0.0000000000000000e+00 0.0000000000000000e+00  0.0000000000000000e+00 0.0000000000000000e+00 0.0000000000000000e+00  0.0000000000000000e+00 0.0000000000000000e+00 0.0000000000000000e+00  -1.1140909720317763e-02 9.2889333971088277e-03 0.0000000000000000e+00  0.0000000000000000e+00 0.0000000000000000e+00 0.0000000000000000e+00  0.0000000000000000e+00 0.0000000000000000e+00 0.0000000000000000e+00  0.0000000000000000e+00 0.0000000000000000e+00 0.0000000000000000e+00  4.5820158716795896e-05 -2.3911855961881768e-02 0.0000000000000000e+00  0.0000000000000000e+00 0.0000000000000000e+00 0.0000000000000000e+00  -2.4999400189473841e-02 -3.2308482799836551e-06 0.0000000000000000e+00  -2.4875981724486376e-02 4.0240379751432727e-05 0.0000000000000000e+00  -2.4804864350723526e-02 -5.2729573753793134e-06 0.0000000000000000e+00  0.0000000000000000e+00 0.0000000000000000e+00 0.0000000000000000e+00  0.0000000000000000e+00 0.0000000000000000e+00 0.0000000000000000e+00  1.1919697257038154e-05 2.4979198124128067e-02 0.0000000000000000e+00  -8.1865986183675365e-06 2.4980515082247443e-02 0.0000000000000000e+00  0.0000000000000000e+00 0.0000000000000000e+00 0.0000000000000000e+00  0.0000000000000000e+00 0.0000000000000000e+00 0.0000000000000000e+00  1.2190476328727394e-04 2.4753430208672895e-02 0.0000000000000000e+00  -2.0371157558122263e-04 2.4895599564053270e-02 0.0000000000000000e+00  0.0000000000000000e+00 0.0000000000000000e+00 0.0000000000000000e+00  0.0000000000000000e+00 0.0000000000000000e+00 0.0000000000000000e+00  3.9910517506004733e-05 -2.4885349333857970e-02 0.0000000000000000e+00  8.6394129436266619e-06 -2.5006615650422389e-02 0.0000000000000000e+00  0.0000000000000000e+00 0.0000000000000000e+00 0.0000000000000000e+00  -1.1496774835489055e-04 -2.4941944437021978e-02 0.0000000000000000e+00  2.4624718664500165e-04 -2.4846872990780918e-02 0.0000000000000000e+00  0.0000000000000000e+00 0.0000000000000000e+00 0.0000000000000000e+00  0.0000000000000000e+00 0.0000000000000000e+00 0.0000000000000000e+00  0.0000000000000000e+00 0.0000000000000000e+00 0.0000000000000000e+00  0.0000000000000000e+00 0.0000000000000000e+00 0.0000000000000000e+00  0.0000000000000000e+00 0.0000000000000000e+00 0.0000000000000000e+00  0.0000000000000000e+00 0.0000000000000000e+00 0.0000000000000000e+00  -2.4680952141662622e-02 1.9405953902884560e-04 0.0000000000000000e+00  -2.4878597098505019e-02 -1.7357770479349509e-04 0.0000000000000000e+00  0.0000000000000000e+00 0.0000000000000000e+00 0.0000000000000000e+00  0.0000000000000000e+00 0.0000000000000000e+00 0.0000000000000000e+00  0.0000000000000000e+00 0.0000000000000000e+00 0.0000000000000000e+00  0.0000000000000000e+00 0.0000000000000000e+00 0.0000000000000000e+00  0.0000000000000000e+00 0.0000000000000000e+00 0.0000000000000000e+00  0.0000000000000000e+00 0.0000000000000000e+00 0.0000000000000000e+00  2.4689502564808272e-02 2.1934613649488135e-04 0.0000000000000000e+00  2.4769047948690507e-02 -1.4652468470355217e-04 0.0000000000000000e+00  0.0000000000000000e+00 0.0000000000000000e+00 0.0000000000000000e+00  0.0000000000000000e+00 0.0000000000000000e+00 0.0000000000000000e+00  0.0000000000000000e+00 0.0000000000000000e+00 0.0000000000000000e+00  2.4724677289168832e-02 4.1055403759118945e-05 0.0000000000000000e+00  2.5029225745387310e-02 1.1678808547176327e-05 0.0000000000000000e+00  0.0000000000000000e+00 0.0000000000000000e+00 0.0000000000000000e+00  0.0000000000000000e+00 0.0000000000000000e+00 0.0000000000000000e+00  -4.6369855024995608e-03 2.0800317367939032e-02 0.0000000000000000e+00  2.1459392785112084e-02 -4.7031911518064674e-03 0.0000000000000000e+00  -4.3096032998492092e-03 -2.1725957959618972e-02 0.0000000000000000e+00  -2.1957684817359345e-02 4.1572835611978151e-03 0.0000000000000000e+00  3.4869682885947836e-05 -2.3757949172166656e-02 0.0000000000000000e+00  -5.9670027801563539e-06 -2.4976587943607017e-02 0.0000000000000000e+00  -2.4862625750290281e-02 -2.8067940998527530e-05 0.0000000000000000e+00  -4.4358286448485872e-07 2.4936380481283528e-02 0.0000000000000000e+00  4.6626163696166950e-05 2.4804189946595244e-02 0.0000000000000000e+00  1.0514757625255904e-02 -6.5822425010866707e-03 0.0000000000000000e+00  2.3891759864216138e-02 3.4245929976926414e-03 0.0000000000000000e+00  3.2053114341442028e-05 2.3882162277567568e-02 0.0000000000000000e+00  -6.1923045944055439e-03 -1.0398279813633747e-02 0.0000000000000000e+00  -2.4723568151947525e-02 1.8553305033603018e-05 0.0000000000000000e+00  -2.4993594316348875e-02 9.6656228229432959e-06 0.0000000000000000e+00  4.6677387078248137e-05 -2.4742394350196505e-02 0.0000000000000000e+00  2.5040231078343921e-02 9.9828772656727167e-06 0.0000000000000000e+00  2.4811015010647888e-02 3.2300765580644058e-05 0.0000000000000000e+00  2.4959430898556768e-02 5.5578434969579517e-06 0.0000000000000000e+00  2.3585614483872020e-02 -1.0186326406664986e-05 0.0000000000000000e+00  3.1660997946025768e-05 2.4765179722842801e-02 0.0000000000000000e+00  -3.1179989601514619e-05 2.4978358729681582e-02 0.0000000000000000e+00  -1.3101185115350444e-05 -2.4877679866432370e-02 0.0000000000000000e+00  3.8846180726260018e-03 2.4660707304487998e-02 0.0000000000000000e+00  -2.4142400206542614e-02 -3.6311129333452975e-03 0.0000000000000000e+00  3.3819648790730330e-03 -2.3933363853434673e-02 0.0000000000000000e+00  1.8489444598677320e-05 2.4986364266930773e-02 0.0000000000000000e+00  -1.0861098030104857e-05 -2.5100197998007570e-02 0.0000000000000000e+00  -2.5014963350930425e-02 -4.9245466956192809e-05 0.0000000000000000e+00  2.3690275366007218e-02 1.4274621167311069e-05 0.0000000000000000e+00  -2.4834138143382971e-02 -1.2409335894867468e-05 0.0000000000000000e+00  2.4889557260322291e-02 -1.0225240188443402e-05 0.0000000000000000e+00  -2.5003560733688038e-02 -6.7241504677490420e-05 0.0000000000000000e+00  8.0935523575024445e-06 -2.4838102250180693e-02 0.0000000000000000e+00  3.2064440647799980e-06 2.4817583002870642e-02 0.0000000000000000e+00  2.4101015594490925e-02 6.9206924250289192e-05 0.0000000000000000e+00  2.4790071650305091e-02 -1.3934103195636341e-03 0.0000000000000000e+00  2.4918522205618802e-02 -7.4601865772614351e-07 0.0000000000000000e+00  1.3832427637554688e-05 2.4876901848542837e-02 0.0000000000000000e+00  -6.0530472448087100e-05 2.4780653158965226e-02 0.0000000000000000e+00  -2.4875520940702407e-02 -8.6678561219820517e-06 0.0000000000000000e+00  -2.4829046395633093e-02 1.4159598770532066e-03 0.0000000000000000e+00  -9.2440359345101616e-04 -2.4807499219653150e-02 0.0000000000000000e+00  1.0054769990908101e-05 -2.4783481397112197e-02 0.0000000000000000e+00  -1.0244413588483617e-03 2.4990585335417190e-02 0.0000000000000000e+00  -2.4941233606931654e-02 6.5904962707426850e-05 0.0000000000000000e+00  3.6962010503077015e-05 -2.4850099705692966e-02 0.0000000000000000e+00  2.4789131036125640e-02 3.0501897014948284e-06 0.0000000000000000e+00  -2.3903721673136927e-02 -6.5968472445847610e-06 0.0000000000000000e+00  2.4989761869445470e-02 -3.4824803381419167e-06 0.0000000000000000e+00  2.3799889448296981e-02 -8.9246245337628582e-05 0.0000000000000000e+00  -2.3823485732516941e-02 -1.8520402884118845e-04 0.0000000000000000e+00  2.8296727716857594e-05 2.4827872334126574e-02 0.0000000000000000e+00  4.0479951683174096e-05 -2.4800419838103993e-02 0.0000000000000000e+00  2.3789902913945841e-02 7.3523823277330056e-04 0.0000000000000000e+00  8.0927108053912070e-04 2.4602660400313205e-02 0.0000000000000000e+00  3.1872646323827245e-05 2.5051870773793457e-02 0.0000000000000000e+00  2.3997163898037494e-02 3.7690489794229453e-06 0.0000000000000000e+00  -2.5090051090577783e-02 -6.1387708578422303e-06 0.0000000000000000e+00  -2.1709032080198382e-02 4.8483475641976722e-05 0.0000000000000000e+00  2.6742744953643378e-05 2.0970199935550632e-02 0.0000000000000000e+00  -4.4718037188787919e-06 -2.5097961405556615e-02 0.0000000000000000e+00  -8.0041230782884531e-05 -2.1377472488984688e-02 0.0000000000000000e+00  2.5087566103705120e-02 -1.3347044624401115e-05 0.0000000000000000e+00  2.1104646562595687e-02 3.9384151468376715e-05 0.0000000000000000e+00  2.6356470140139617e-07 2.1803920218957568e-02 0.0000000000000000e+00  -2.4337793873529152e-02 1.5420703588408819e-04 0.0000000000000000e+00  -4.6298128573036057e-05 -2.1781074012570182e-02 0.0000000000000000e+00  8.8333405306405404e-05 2.1816347030406434e-02 0.0000000000000000e+00  -1.3493148808953638e-05 -2.1572794548411552e-02 0.0000000000000000e+00  6.8772910023025035e-03 6.6808194981053523e-03 0.0000000000000000e+00  1.2969464537392559e-02 1.5109976174451006e-02 0.0000000000000000e+00  -1.7148511108927675e-03 8.6334096387860066e-03 0.0000000000000000e+00  9.5782799189378777e-04 -2.4611791969933391e-02 0.0000000000000000e+00  -2.4564721169553667e-02 -8.5607787632855097e-04 0.0000000000000000e+00  -1.3389370320531921e-05 2.4783086058884973e-02 0.0000000000000000e+00  7.8402018779210957e-06 -2.4830182346606344e-02 0.0000000000000000e+00  0.0000000000000000e+00 0.0000000000000000e+00 0.0000000000000000e+00  0.0000000000000000e+00 0.0000000000000000e+00 0.0000000000000000e+00  1.1339333425996688e-03 -2.1212409003331666e-02 0.0000000000000000e+00  -2.1319305556835470e-02 -6.8174052363390752e-04 0.0000000000000000e+00  -8.0556720074958146e-03 -2.0670911870488010e-03 0.0000000000000000e+00  1.3370014552436974e-02 -1.7212047658382568e-02 0.0000000000000000e+00  -2.1280207064009401e-02 -1.0499626785388648e-02 0.0000000000000000e+00  2.1282004882427121e-02 6.2264102831713656e-04 0.0000000000000000e+00  1.4066662704607697e-04 2.1010474454539678e-02 0.0000000000000000e+00  2.1241670386668520e-03 -7.9793805166193041e-03 0.0000000000000000e+00  0.0000000000000000e+00 0.0000000000000000e+00 0.0000000000000000e+00  2.2039432550843455e-02 -3.6271641300381568e-04 0.0000000000000000e+00  -2.6513267327873970e-03 -2.4819040765209820e-02 0.0000000000000000e+00  0.0000000000000000e+00 0.0000000000000000e+00 0.0000000000000000e+00  9.1475448588400855e-05 -2.1889628707824921e-02 0.0000000000000000e+00  0.0000000000000000e+00 0.0000000000000000e+00 0.0000000000000000e+00  1.1827770680926596e-04 2.2357438615485108e-02 0.0000000000000000e+00  -2.2438558461819275e-02 -1.8305922993324441e-04 0.0000000000000000e+00  0.0000000000000000e+00 0.0000000000000000e+00 0.0000000000000000e+00  0.0000000000000000e+00 0.0000000000000000e+00 0.0000000000000000e+00  0.0000000000000000e+00 0.0000000000000000e+00 0.0000000000000000e+00  1.4560796695370370e-05 -2.5036470007047860e-02 0.0000000000000000e+00  -4.4402835732077570e-05 2.4985774938341369e-02 0.0000000000000000e+00  2.5072995719585753e-02 6.0297074682555249e-06 0.0000000000000000e+00  2.4677987665913781e-02 -3.8604382223676801e-04 0.0000000000000000e+00  -2.4972796804651195e-02 -2.3348284154531049e-05 0.0000000000000000e+00  1.8391683083426483e-05 -2.4993587529188763e-02 0.0000000000000000e+00  2.8280478475565579e-05 2.4932137726201082e-02 0.0000000000000000e+00  -2.5092127847076210e-02 4.7069021921849887e-06 0.0000000000000000e+00  2.1389828027396973e-02 1.0096098409700714e-06 0.0000000000000000e+00  0.0000000000000000e+00 0.0000000000000000e+00 0.0000000000000000e+00  0.0000000000000000e+00 0.0000000000000000e+00 0.0000000000000000e+00  5.0883151996782624e-04 -2.2415566774182504e-02 0.0000000000000000e+00  -1.1653373692445553e-04 2.2394491785898977e-02 0.0000000000000000e+00  0.0000000000000000e+00 0.0000000000000000e+00 0.0000000000000000e+00  -2.4116838078819931e-02 3.3033101241260236e-04 0.0000000000000000e+00  0.0000000000000000e+00 0.0000000000000000e+00 0.0000000000000000e+00  0.0000000000000000e+00 0.0000000000000000e+00 0.0000000000000000e+00  2.4209239021932494e-02 6.8406613184793599e-05 0.0000000000000000e+00  -2.4033914837918863e-02 -3.0314866198726690e-05 0.0000000000000000e+00  0.0000000000000000e+00 0.0000000000000000e+00 0.0000000000000000e+00  0.0000000000000000e+00 0.0000000000000000e+00 0.0000000000000000e+00  -1.1655513093102900e-02 -1.8178978508585568e-02 0.0000000000000000e+00  -2.0706329253941871e-05 -2.4790616051875283e-02 0.0000000000000000e+00  -2.4847317039693239e-02 7.9553247131846144e-05 0.0000000000000000e+00  2.4963972353525894e-02 1.5402670017262174e-06 0.0000000000000000e+00  2.0764234734881445e-05 2.5070682021380422e-02 0.0000000000000000e+00  -2.2390919872138901e-02 -1.1344542162441806e-04 0.0000000000000000e+00  1.4648508744412189e-04 2.2118578471347281e-02 0.0000000000000000e+00  -1.5866021734531113e-05 2.1990132141594346e-02 0.0000000000000000e+00  7.1635282182111134e-05 -2.2003753562687439e-02 0.0000000000000000e+00  2.6724120211766187e-05 -2.4854632836979140e-02 0.0000000000000000e+00  0.0000000000000000e+00 0.0000000000000000e+00 0.0000000000000000e+00  4.1771566854262472e-06 -2.4799236337235561e-02 0.0000000000000000e+00  -1.2835070145007201e-02 2.6148040465779755e-03 0.0000000000000000e+00  -1.9381454228205256e-02 1.3037209370017103e-02 0.0000000000000000e+00  2.2441789900096931e-02 1.0496205784996012e-02 0.0000000000000000e+00  -1.8115294575491874e-03 -2.3534078459713229e-02 0.0000000000000000e+00  6.9441069266293039e-03 1.1281276771948647e-04 0.0000000000000000e+00  -2.2628083040687481e-02 -2.3101776471727664e-04 0.0000000000000000e+00  7.9023354994261650e-06 -2.2622195271111496e-02 0.0000000000000000e+00  -2.4365037222548724e-04 2.2611920931162020e-02 0.0000000000000000e+00  2.2376221930757327e-02 3.0240571992529539e-05 0.0000000000000000e+00  2.2364594556999913e-02 4.4924220121560957e-06 0.0000000000000000e+00  2.0513392114524000e-04 2.4683337067623171e-02 0.0000000000000000e+00  2.2438739040656727e-02 4.0730523679488362e-04 0.0000000000000000e+00  3.4214895731771682e-05 -2.5052430768372807e-02 0.0000000000000000e+00  2.2520372677988290e-05 2.5062316083003189e-02 0.0000000000000000e+00  2.4931106165462430e-02 2.9275577573403831e-05 0.0000000000000000e+00  -2.5045602496867502e-02 4.7526948431373590e-05 0.0000000000000000e+00  -2.1822959618358430e-02 1.7956946038872842e-04 0.0000000000000000e+00  -1.9816494909508556e-04 -2.4652568783772821e-02 0.0000000000000000e+00  -1.8832490394857324e-04 -2.1644903720160459e-02 0.0000000000000000e+00  -2.4637935810170510e-02 4.9285037336789712e-04 0.0000000000000000e+00  2.5082174065409964e-02 1.9729181561375042e-05 0.0000000000000000e+00  7.4548074150720830e-06 2.5004946529529171e-02 0.0000000000000000e+00  2.4649482401754935e-02 4.0712453412230018e-04 0.0000000000000000e+00  -2.9027049008041629e-03 1.5387177279044479e-02 0.0000000000000000e+00  0.0000000000000000e+00 0.0000000000000000e+00 0.0000000000000000e+00  0.0000000000000000e+00 0.0000000000000000e+00 0.0000000000000000e+00  0.0000000000000000e+00 0.0000000000000000e+00 0.0000000000000000e+00  -8.7426265859623947e-06 2.5081700892888879e-02 0.0000000000000000e+00  2.2789055563241513e-05 2.4958831968084131e-02 0.0000000000000000e+00  2.8414930239700024e-05 -2.4994473642262344e-02 0.0000000000000000e+00  -2.4875827756958412e-02 -8.9779538422966533e-06 0.0000000000000000e+00  0.0000000000000000e+00 0.0000000000000000e+00 0.0000000000000000e+00  -7.3596071236296829e-06 -2.5047389616572175e-02 0.0000000000000000e+00  0.0000000000000000e+00 0.0000000000000000e+00 0.0000000000000000e+00  -2.1756966301657642e-02 -2.7892310535191599e-05 0.0000000000000000e+00  -4.4332889149778336e-05 -2.4971650575047983e-02 0.0000000000000000e+00  -2.0083138345347571e-03 2.2982293966849521e-02 0.0000000000000000e+00  -3.3638906932690637e-03 2.4387111737673463e-02 0.0000000000000000e+00  -2.5059702499050505e-02 3.8376008534612661e-06 0.