<?xml version="1.0"?>
<VTKFile type="UnstructuredGrid"  version="0.1"  >
<UnstructuredGrid>
<Piece  NumberOfPoints="778" NumberOfCells="1401">
<Points>
<DataArray  type="Float64"  NumberOfComponents="3"  format="ascii">1 -1 0  6 -1 0  6 1 0  1 1 0  1 6 0  -1 6 0  -1 1 0  -6 1 0  -6 -1 0  -1 -1 0  -1 -6 0  1 -6 0  1 3.5 0  -1 3.5 0  -1 -3.5 0  1 -3.5 0  3.5 -1 0  3.5 1 0  -3.5 -1 0  -3.5 1 0  -1 -2.25 0  1 -2.25 0  2.25 -1 0  2.25 1 0  -1 2.25 0  1 2.25 0  -1 4.75 0  1 4.75 0  -4.75 -1 0  -4.75 1 0  -2.25 1 0  -2.25 -1 0  1 -4.75 0  -1 -4.75 0  4.75 1 0  4.75 -1 0  0 0 0  -2.875 0 0  -1.625 0 0  -4.125 0 0  -6 0 0  0 2.875 0  2.875 0 0  0 6 0  1.625 0 0  0 -2.875 0  0 -1.625 0  0 1.625 0  0 4.125 0  0 -6 0  0 -4.125 0  4.125 0 0  6 0 0  -0.109375 5.0625 0  -5.0625 -0.109375 0  -0.109375 -5.0625 0  5.0625 0.109375 0  0.8125 -0.1875 0  -0.1875 -0.8125 0  -0.8125 0.1875 0  -0.1875 0.8125 0  1 5.375 0  -5.375 1 0  1 -5.375 0  5.375 -1 0  0.53515625 0.46484375 0  -5.375 -1 0  -1 5.375 0  -1 -5.375 0  -0.5 -6 0  5.375 1 0  6 0.5 0  3.5 0.3046875 0  3.43125 -0.34765625 0  2.875 -1 0  4.125 1 0  0.3046875 3.5 0  -0.34765625 3.56875 0  -1 4.125 0  1 4.125 0  -0.3046875 2.25 0  0.34765625 2.18125 0  1 1.625 0  -1 -1.625 0  -0.3046875 -3.5 0  0.34765625 -3.56875 0  1 -4.125 0  0.3046875 -2.25 0  -0.34765625 -2.18125 0  -1 -4.125 0  -1 -2.875 0  1 -2.875 0  1 -1.625 0  1.625 -1 0  1.625 1 0  2.25 0.3046875 0  2.18125 -0.34765625 0  4.125 -1 0  2.875 1 0  1 2.875 0  -1 1.625 0  -1 2.875 0  -4.125 -1 0  -2.25 0.3046875 0  -2.31875 -0.34765625 0  -2.875 -1 0  -1.625 1 0  -4.125 1 0  -3.5 0.3046875 0  -3.56875 -0.34765625 0  -1.625 -1 0  -2.875 1 0  0.380626321794301 1.06853329530276 0  -1.110819327731092 -0.3739495798319328 0  0.3739495798319328 -1.110819327731092 0  1.151210293219304 0.3991939332620648 0  -0.5 -4.4375 0  0.5 -4.4375 0  5.481553398058253 -0.3712833737864077 0  0.5 4.4375 0  0.5 6 0  -0.522503783594538 -0.3265648647465863 0  -1.3125 0.5 0  -0.5 6 0  0.3265648647465863 -0.522503783594538 0  4.4375 0.5 0  4.4375 -0.5 0  0.5 -6 0  -6 -0.5 0  -5.481553398058253 0.3712833737864077 0  -4.55 -0.4296875 0  -4.4375 0.5 0  -0.5 4.4375 0  0.4792930825242718 5.026881067961165 0  0.4792930825242718 -5.026881067961165 0  -0.5 1.3125 0  1.3125 -0.5 0  -0.5 -1.3125 0  0.25 5.518539952962044 0  0.2125133872612723 -5.500076563152851 0  4.969341874373811 -0.5152550785163683 0  -4.969341874373811 0.5152550785163683 0  3.927189744345589 -0.4712876597840069 0  -5.554036458333333 -0.25 0  5.554036458333333 0.25 0  -0.4690710616438356 -5.462756849315069 0  -0.4690710616438356 5.462756849315069 0  -6 0.5 0  -1.59556436210848 -0.5 0  -3.058421751829955 -0.5 0  -0.5 2.731982421875 0  0.5 2.691578248170045 0  2.691578248170045 -0.5 0  1.641211254104555 0.5 0  0.5 -1.768017578125 0  0.5 -3.058421751829955 0  0.5 1.699267578125 0  3.018017578125 0.5 0  -0.5 -3.018017578125 0  -2.731982421875 0.5 0  6 -0.5 0  -4.050017120925308 -0.5006099332648871 0  -3.940668202764977 0.5371363767281105 0  3.940668202764977 0.5371363767281105 0  0.4517449476047904 3.958458083832335 0  -0.4517449476047904 -3.958458083832335 0  -1.809331797235023 0.5371363767281105 0  -0.4517449476047904 1.791541916167665 0  -0.0546875 4.59375 0  -5.006445312499999 -0.58984375 0  4.605643203883496 -0.04725424757281554 0  4.90625 0.5546875 0  -0.5546875 4.90625 0  0.04725424757281554 -4.605643203883496 0  -0.586116118210531 -4.995821561900013 0  -4.603710222472543 0.04846236095466061 0  -3.1875 0.65234375 0  0.6163907621110913 3.147502300973589 0  2.5625 0.65234375 0  0.6163907621110913 -2.602497699026411 0  -0.637456713551384 3.189259902731882 0  -0.637456713551384 -2.560740097268118 0  -0.34765625 0.34765625 0  -0.639453125 0.708203125 0  0.089630126953125 0.437286376953125 0  -0.4238281249999999 -1.746875 0  1.746875 -0.4238281249999999 0  -0.4238281249999999 4.003125 0  0.4238281249999999 -4.003125 0  -2.5625 -1 0  3.1875 -1 0  -0.09375 -1.21875 0  1.21875 -0.09375 0  0.4020305405760241 -0.1120343241705621 0  -0.6280191027904287 -0.7577505545748082 0  0.90625 -0.59375 0  -1.205500904741459 0.03633725387965409 0  -0.02129048848213058 1.202028574265107 0  -0.1120343241705621 -0.4020305405760241 0  1 1.3125 0  -2.003587563743074 -0.6442361556699288 0  0.6640077663259718 -1.395873598614549 0  5.6875 -1 0  0.6308138580859101 -5.592151086468728 0  -5.6875 -1 0  0.6568032075915271 5.612942566073222 0  5.616530031741774 0.6612875396772174 0  -5.6875 1 0  1.9375 1 0  -1.3125 -1 0  0.1524679547155687 -3.232579139388032 0  0.1524679547155687 2.517420860611968 0  -3.232579139388032 -0.1524679547155687 0  -1.932320553757026 -0.252759244693845 0  2.517420860611968 -0.1524679547155687 0  -0.04776045819569434 -2.464949198504599 0  -0.2420369079104247 3.187693796852321 0  3.751304711039982 -0.1203080877045035 0  -5.397601941771943 -0.609026059866711 0  1.3125 1 0  1.9375 -1 0  -0.6946315101963667 -2.018229242739021 0  -0.6946315101963667 3.731770757260979 0  1 -3.8125 0  2.014364435550335 0.6166648446293641 0  -1 5.6875 0  -1 -5.6875 0  -2.653476149871182 -0.5942957192996303 0  3.096523850128818 -0.5942957192996303 0  1 1.9375 0  -3.8125 -1 0  0.586975531244212 -0.7975955463807081 0  -0.2946248980953088 -4.743710873809568 0  2.625453376770019 0.2814788818359375 0  -3.124546623229981 0.2814788818359375 0  -0.1204856417894853 5.631800603217465 0  5.253862011026742 0.6581468962876398 0  -0.65234375 2.108701557941197 0  0.65234375 3.641298442058803 0  -0.65234375 -3.641298442058803 0  -0.25 -5.744880569758637 0  -4.4375 -1 0  -0.3166212631734941 -2.713595940002554 0  0.6591479224207506 0.1324305912687024 0  0.8660781906552419 0.6468634238104103 0  -0.9887189158197679 0.6452930723873549 0  0.3149351927204296 -1.460971774996065 0  -0.3572852727880474 -0.009629022788047503 0  2.09375 -0.6866724363772454 0  0.6866724363772454 -3.65625 0  0.6866724363772454 2.09375 0  -3.65625 -0.6866724363772454 0  -3.5371337890625 0.65234375 0  -0.1389584113023952 1.944025352615082 0  -2.151744288472698 0.65234375 0  -0.1389584113023951 -3.805974647384918 0  0.1389584113023951 3.805974647384918 0  -2.578772109813904 0.1857224367977529 0  3.171227890186096 0.1857224367977529 0  3.360315647536819 0.65234375 0  0.1857224367977528 -1.921227890186096 0  0.65234375 -2.110315647536819 0  1.894016528727564 0.2415406141485869 0  -3.738232421875 0 0  0.2516875549238616 3.139069895099618 0  -1.913724396854074 0.2011142179916434 0  0.1669456568161915 0.7843410671359501 0  -2.5625 1 0  -1 -3.1875 0  -1 2.5625 0  0.1736601499778735 4.857955663330752 0  -0.1893536587212888 2.577300639071919 0  -0.1893536587212888 -3.172699360928081 0  3.852271904453858 0.206603749322895 0  -3.8125 1 0  -0.1250095034621793 -5.421707592768541 0  3.8125 -1 0  3.617304217264373 -0.6578427703661498 0  0.2630176195580202 -2.636558318495885 0  0.2674330357770522 1.399517071108871 0  0.631726413079416 1.339254523727593 0  4.700571879807737 0.2813704945051134 0  0.7143844363649634 -3.319538455208831 0  2.430461544791169 -0.7143844363649634 0  0.7143844363649634 2.430461544791169 0  -3.319538455208831 -0.7143844363649634 0  5.687045771608623 -0.6520598572553891 0  -5.687045771608623 0.6520598572553891 0  -1.15625 -0.7048248829733235 0  3.438284572973296 -0.01860298867862281 0  -0.03021088078697859 3.451572359862192 0  2.216682837011589 -0.02159585961918548 0  -2.191580885932936 -0.03126387444658879 0  0.1857410764408683 1.895679405349457 0  3.103473238297955 -0.253270943723272 0  -2.646526761702045 -0.253270943723272 0  -2.333137350671861 -0.6791984914172315 0  -1 5.0625 0  -0.6971235589909319 5.213002544375844 0  0.01618705363819947 2.225929180591695 0  0.01618705363819947 -3.524070819408305 0  0.5690054882403073 0.7951310720450595 0  -0.5764940424412852 -3.329579265180942 0  -0.5764940424412852 2.420420734819058 0  3.8125 1 0  -5.372163860234628 0.04365139563106807 0  5.164108319316826 -0.225040894204947 0  -5.361952437854323 0.6744012088984681 0  -5.0625 1 0  5.286835586913878 -0.6616705837083201 0  -5.692815197359722 0.1186699900166531 0  5.663425996156958 -0.07763197815533956 0  -0.9219866027132193 -0.1143045829323572 0  -1.394333629759332 -0.2233077430199216 0  0.09322478991596644 -0.9616596638655462 0  5.0625 -1 0  -0.14412109375 -1.92169189453125 0  -4.28125 -0.7212148987671345 0  0.2649796277366407 0.1735162902120744 0  -4.907855692236596 0.1868230509619793 0  -1.9375 1 0  1 5.0625 0  0.6915124486819284 -5.272938212550202 0  0.683483242673902 5.284948082526911 0  2.5625 -1 0  -1 -3.8125 0  -1 1.9375 0  5.0625 1 0  -1 -1.9375 0  1 5.6875 0  1 -5.6875 0  -1.9375 -1 0  -1 -2.5625 0  -1 3.1875 0  1 -3.1875 0  1 -2.5625 0  1 2.5625 0  1 3.1875 0  -5.0625 -1 0  -1 -1.3125 0  1.3125 -1 0  -1 1.3125 0  -1 3.8125 0  -1 4.4375 0  -4.4375 1 0  4.4375 -1 0  4.4375 1 0  -1.3125 1 0  1 4.4375 0  1 -4.4375 0  -1 -5.0625 0  -1 -4.4375 0  -3.1875 1 0  2.5625 1 0  1 -1.9375 0  1 -1.3125 0  5.6875 1 0  1 3.8125 0  3.1875 1 0  -3.1875 -1 0  1 -5.0625 0  1.35138038998199 0.6675097549271188 0  -0.465625 0.986328125 0  1.435958105992309 0.2563920171199723 0  1.915914614192913 -0.145782394639918 0  -0.8764440609469509 -0.5746869313612541 0  5.355194559946098 0.01566259380337612 0  -5.69333042954964 -0.5242868300459975 0  1.78125 -0.7320750794491524 0  0.7320750794491525 -3.96875 0  -0.3959075548864684 5.166422468926435 0  -4.770522389068053 -0.2123670725088856 0  -4.714160156249999 -0.69234375 0  -4.273484403713342 -0.278160994327167 0  0.9642590244517505 0.08196089404241463 0  0.3500261717645397 -4.727285205957206 0  0.6740868006020392 -4.765147848348443 0  0.6797550207247084 -1.089747806381148 0  -5.186479934354063 0.3046329157552757 0  -5.263288238215326 -0.3369092276308425 0  -2.433484016245305 0.5442571297016638 0  0.1707808983307866 -3.82363304980935 0  -0.1554012991031027 3.867535742674252 0  4.855508096805579 -0.2283975605264581 0  3.644517238097614 0.5646428152488787 0  0.05699603874439441 -0.6452791208413911 0  -0.3550018917972689 -0.5695324323732931 0  0.6
[...]
<PointData  Vectors="u"> 
<DataArray  type="Float64"  Name="u"  NumberOfComponents="3" format="ascii">0.0000000000000000e+00 0.0000000000000000e+00 0.0000000000000000e+00  0.0000000000000000e+00 0.0000000000000000e+00 0.0000000000000000e+00  0.0000000000000000e+00 0.0000000000000000e+00 0.0000000000000000e+00  0.0000000000000000e+00 0.0000000000000000e+00 0.0000000000000000e+00  0.0000000000000000e+00 0.0000000000000000e+00 0.0000000000000000e+00  0.0000000000000000e+00 0.0000000000000000e+00 0.0000000000000000e+00  0.0000000000000000e+00 0.0000000000000000e+00 0.0000000000000000e+00  0.0000000000000000e+00 0.0000000000000000e+00 0.0000000000000000e+00  0.0000000000000000e+00 0.0000000000000000e+00 0.0000000000000000e+00  0.0000000000000000e+00 0.0000000000000000e+00 0.0000000000000000e+00  0.0000000000000000e+00 0.0000000000000000e+00 0.0000000000000000e+00  0.0000000000000000e+00 0.0000000000000000e+00 0.0000000000000000e+00  0.0000000000000000e+00 0.0000000000000000e+00 0.0000000000000000e+00  0.0000000000000000e+00 0.0000000000000000e+00 0.0000000000000000e+00  0.0000000000000000e+00 0.0000000000000000e+00 0.0000000000000000e+00  0.0000000000000000e+00 0.0000000000000000e+00 0.0000000000000000e+00  0.0000000000000000e+00 0.0000000000000000e+00 0.0000000000000000e+00  0.0000000000000000e+00 0.0000000000000000e+00 0.0000000000000000e+00  0.0000000000000000e+00 0.0000000000000000e+00 0.0000000000000000e+00  0.0000000000000000e+00 0.0000000000000000e+00 0.0000000000000000e+00  0.0000000000000000e+00 0.0000000000000000e+00 0.0000000000000000e+00  0.0000000000000000e+00 0.0000000000000000e+00 0.0000000000000000e+00  0.0000000000000000e+00 0.0000000000000000e+00 0.0000000000000000e+00  0.0000000000000000e+00 0.0000000000000000e+00 0.0000000000000000e+00  0.0000000000000000e+00 0.0000000000000000e+00 0.0000000000000000e+00  0.0000000000000000e+00 0.0000000000000000e+00 0.0000000000000000e+00  0.0000000000000000e+00 0.0000000000000000e+00 0.0000000000000000e+00  0.0000000000000000e+00 0.0000000000000000e+00 0.0000000000000000e+00  0.0000000000000000e+00 0.0000000000000000e+00 0.0000000000000000e+00  0.0000000000000000e+00 0.0000000000000000e+00 0.0000000000000000e+00  0.0000000000000000e+00 0.0000000000000000e+00 0.0000000000000000e+00  0.0000000000000000e+00 0.0000000000000000e+00 0.0000000000000000e+00  0.0000000000000000e+00 0.0000000000000000e+00 0.0000000000000000e+00  0.0000000000000000e+00 0.0000000000000000e+00 0.0000000000000000e+00  0.0000000000000000e+00 0.0000000000000000e+00 0.0000000000000000e+00  0.0000000000000000e+00 0.0000000000000000e+00 0.0000000000000000e+00  -2.0234903757601050e-04 1.0164960640563269e-04 0.0000000000000000e+00  5.2983800225267955e-02 -1.1447664826347769e-05 0.0000000000000000e+00  5.0623467872923399e-02 6.2429663578437677e-05 0.0000000000000000e+00  5.3046686674143688e-02 3.9276960778185571e-06 0.0000000000000000e+00  5.3103198382230446e-02 3.6779129824009800e-05 0.0000000000000000e+00  1.2851752265420266e-05 5.2972329209353637e-02 0.0000000000000000e+00  -5.2894482129722718e-02 4.4578297552355441e-05 0.0000000000000000e+00  3.9607075728695228e-05 5.2906152250384815e-02 0.0000000000000000e+00  -5.0723232270448212e-02 1.1974080001070897e-04 0.0000000000000000e+00  6.8730386029053572e-06 -5.2937060773082474e-02 0.0000000000000000e+00  -1.3052362613015586e-05 -5.0550767145443778e-02 0.0000000000000000e+00  4.2242905098358600e-05 5.0489859310399697e-02 0.0000000000000000e+00  3.6519057457388247e-05 5.2930235411762505e-02 0.0000000000000000e+00  4.1456331268893695e-05 -5.2923340342134119e-02 0.0000000000000000e+00  6.8411902396663192e-05 -5.2995874279104821e-02 0.0000000000000000e+00  -5.3056207320851465e-02 -1.9129752712710621e-05 0.0000000000000000e+00  -5.3023620914354357e-02 -4.7835049048839601e-05 0.0000000000000000e+00  -6.5623348838934591e-05 5.3056497221518145e-02 0.0000000000000000e+00  5.2998042581599326e-02 -6.9980876807551631e-05 0.0000000000000000e+00  -8.1839333123222367e-05 -5.2805319429334550e-02 0.0000000000000000e+00  -5.2920921335420125e-02 -6.4596035813522655e-05 0.0000000000000000e+00  -3.4339670919528900e-02 -7.1076572105560889e-03 0.0000000000000000e+00  6.8970590241357989e-03 -3.3860113894557092e-02 0.0000000000000000e+00  3.3752682196400430e-02 7.0158467313301111e-03 0.0000000000000000e+00  7.1152581568916613e-03 3.3915416099439349e-02 0.0000000000000000e+00  0.0000000000000000e+00 0.0000000000000000e+00 0.0000000000000000e+00  0.0000000000000000e+00 0.0000000000000000e+00 0.0000000000000000e+00  0.0000000000000000e+00 0.0000000000000000e+00 0.0000000000000000e+00  0.0000000000000000e+00 0.0000000000000000e+00 0.0000000000000000e+00  -2.3670483666595087e-02 1.9973294297318846e-02 0.0000000000000000e+00  0.0000000000000000e+00 0.0000000000000000e+00 0.0000000000000000e+00  0.0000000000000000e+00 0.0000000000000000e+00 0.0000000000000000e+00  0.0000000000000000e+00 0.0000000000000000e+00 0.0000000000000000e+00  5.9323888235790435e-05 -5.0519233384790092e-02 0.0000000000000000e+00  0.0000000000000000e+00 0.0000000000000000e+00 0.0000000000000000e+00  -5.2784973461394456e-02 -9.5898356228835789e-07 0.0000000000000000e+00  -5.3105380281200674e-02 6.1332689917171842e-05 0.0000000000000000e+00  -5.2983259721820594e-02 1.9121788648220512e-05 0.0000000000000000e+00  0.0000000000000000e+00 0.0000000000000000e+00 0.0000000000000000e+00  0.0000000000000000e+00 0.0000000000000000e+00 0.0000000000000000e+00  3.0906630373405105e-05 5.2934190299325189e-02 0.0000000000000000e+00  -3.6098811410014091e-06 5.3041292655460801e-02 0.0000000000000000e+00  0.0000000000000000e+00 0.0000000000000000e+00 0.0000000000000000e+00  0.0000000000000000e+00 0.0000000000000000e+00 0.0000000000000000e+00  2.5259235290133294e-04 5.2708876786198865e-02 0.0000000000000000e+00  -3.7635899134612859e-04 5.2779110481466836e-02 0.0000000000000000e+00  0.0000000000000000e+00 0.0000000000000000e+00 0.0000000000000000e+00  0.0000000000000000e+00 0.0000000000000000e+00 0.0000000000000000e+00  4.2846339024315792e-05 -5.2923979693675918e-02 0.0000000000000000e+00  1.6866250599851286e-05 -5.2973830570385530e-02 0.0000000000000000e+00  0.0000000000000000e+00 0.0000000000000000e+00 0.0000000000000000e+00  -2.2606895192272555e-04 -5.2744632447028476e-02 0.0000000000000000e+00  4.6539516921887032e-04 -5.2826828056782682e-02 0.0000000000000000e+00  0.0000000000000000e+00 0.0000000000000000e+00 0.0000000000000000e+00  0.0000000000000000e+00 0.0000000000000000e+00 0.0000000000000000e+00  0.0000000000000000e+00 0.0000000000000000e+00 0.0000000000000000e+00  0.0000000000000000e+00 0.0000000000000000e+00 0.0000000000000000e+00  0.0000000000000000e+00 0.0000000000000000e+00 0.0000000000000000e+00  0.0000000000000000e+00 0.0000000000000000e+00 0.0000000000000000e+00  -5.2701023800749966e-02 3.3717279423590692e-04 0.0000000000000000e+00  -5.2735392656812832e-02 -3.4088454258854724e-04 0.0000000000000000e+00  0.0000000000000000e+00 0.0000000000000000e+00 0.0000000000000000e+00  0.0000000000000000e+00 0.0000000000000000e+00 0.0000000000000000e+00  0.0000000000000000e+00 0.0000000000000000e+00 0.0000000000000000e+00  0.0000000000000000e+00 0.0000000000000000e+00 0.0000000000000000e+00  0.0000000000000000e+00 0.0000000000000000e+00 0.0000000000000000e+00  0.0000000000000000e+00 0.0000000000000000e+00 0.0000000000000000e+00  5.2841045183184457e-02 3.5223831980455870e-04 0.0000000000000000e+00  5.2925657945470238e-02 -3.1675907368163085e-04 0.0000000000000000e+00  0.0000000000000000e+00 0.0000000000000000e+00 0.0000000000000000e+00  0.0000000000000000e+00 0.0000000000000000e+00 0.0000000000000000e+00  0.0000000000000000e+00 0.0000000000000000e+00 0.0000000000000000e+00  5.2813602653468121e-02 9.0065739110484715e-05 0.0000000000000000e+00  5.3012481946192576e-02 2.4388008732587215e-05 0.0000000000000000e+00  0.0000000000000000e+00 0.0000000000000000e+00 0.0000000000000000e+00  0.0000000000000000e+00 0.0000000000000000e+00 0.0000000000000000e+00  -9.8439251613624650e-03 4.4748688367604879e-02 0.0000000000000000e+00  4.6033278259585496e-02 -9.6283164383534972e-03 0.0000000000000000e+00  -9.1733820311808191e-03 -4.6472610287221418e-02 0.0000000000000000e+00  -4.7039208880114113e-02 8.6586832031479623e-03 0.0000000000000000e+00  3.9628843748840124e-05 -5.0437559667284977e-02 0.0000000000000000e+00  -1.1959042876288490e-06 -5.3012626066680328e-02 0.0000000000000000e+00  -5.3041965564807579e-02 -7.2952366567067460e-05 0.0000000000000000e+00  3.6674392264147209e-06 5.2914982173940410e-02 0.0000000000000000e+00  4.5007446841926441e-05 5.2888928126934319e-02 0.0000000000000000e+00  2.2430608398276312e-02 -1.4010072703376713e-02 0.0000000000000000e+00  5.1162697108231132e-02 7.1663171664913018e-03 0.0000000000000000e+00  2.3472853058307825e-05 5.0510739289953054e-02 0.0000000000000000e+00  -1.3486455715899988e-02 -2.2396871904103346e-02 0.0000000000000000e+00  -5.2889387641410567e-02 -3.6755459960336125e-05 0.0000000000000000e+00  -5.3041930283320951e-02 7.2006317448242961e-06 0.0000000000000000e+00  2.8809838284459536e-05 -5.2884118911940191e-02 0.0000000000000000e+00  5.3121874488668931e-02 -7.0301660605426133e-07 0.0000000000000000e+00  5.2948114723248556e-02 5.4390425729328099e-05 0.0000000000000000e+00  5.3114790395015467e-02 6.4514744189984987e-06 0.0000000000000000e+00  5.0255211898612144e-02 -1.5207087321684191e-05 0.0000000000000000e+00  1.8972613345692761e-05 5.2758170197887720e-02 0.0000000000000000e+00  -3.5281191574560567e-05 5.3047081979583265e-02 0.0000000000000000e+00  -3.0693548751325642e-05 -5.2976740140291724e-02 0.0000000000000000e+00  7.6737941034563341e-03 5.2535673543068512e-02 0.0000000000000000e+00  -5.1696558376952147e-02 -7.1629204685583949e-03 0.0000000000000000e+00  7.1786045480286267e-03 -5.1225416869170336e-02 0.0000000000000000e+00  3.3816992997070329e-05 5.2929939507018804e-02 0.0000000000000000e+00  -2.5292304807048726e-05 -5.3023462920061493e-02 0.0000000000000000e+00  -5.3094321556036460e-02 -6.0714435373285873e-05 0.0000000000000000e+00  5.0811281252975807e-02 2.6284287611952988e-06 0.0000000000000000e+00  -5.2953398387066045e-02 -2.8848499861483238e-05 0.0000000000000000e+00  5.3021077865500144e-02 -7.2153062432880926e-05 0.0000000000000000e+00  -5.2979298744801971e-02 -1.4049320119276232e-04 0.0000000000000000e+00  4.3088653478195104e-06 -5.2839982812102837e-02 0.0000000000000000e+00  1.6209532981989682e-05 5.2887201218438519e-02 0.0000000000000000e+00  5.1360945420409296e-02 1.1754596405916650e-04 0.0000000000000000e+00  5.2739330962780363e-02 -2.7638484432904340e-03 0.0000000000000000e+00  5.3032304828377022e-02 1.5290851819954462e-05 0.0000000000000000e+00  -5.0890861180574178e-06 5.2972150257752197e-02 0.0000000000000000e+00  -9.3385710121044474e-05 5.2856937250740088e-02 0.0000000000000000e+00  -5.2959442994564551e-02 -2.7500994659460476e-05 0.0000000000000000e+00  -5.2829265088483048e-02 2.7260263009677489e-03 0.0000000000000000e+00  -1.6200255905795789e-03 -5.2625263551303147e-02 0.0000000000000000e+00  -1.2020687831409954e-05 -5.2916796831100565e-02 0.0000000000000000e+00  -1.8773141166995809e-03 5.2973918068367348e-02 0.0000000000000000e+00  -5.2846579896033107e-02 9.8717936399402703e-05 0.0000000000000000e+00  1.0275700043478377e-04 -5.2887244254211221e-02 0.0000000000000000e+00  5.2990145498292014e-02 2.1765110766689995e-06 0.0000000000000000e+00  -5.1221755262034534e-02 -5.1791095787594374e-05 0.0000000000000000e+00  5.3017237580179462e-02 -4.2473823570097481e-06 0.0000000000000000e+00  5.0921426857946817e-02 -1.8194842368635857e-04 0.0000000000000000e+00  -5.0908113086225920e-02 -3.8822741661609280e-04 0.0000000000000000e+00  2.9010768922639026e-05 5.2931590814770259e-02 0.0000000000000000e+00  8.2050166274440995e-05 -5.2937514929410297e-02 0.0000000000000000e+00  5.0648104381110740e-02 1.4323172268576323e-03 0.0000000000000000e+00  1.5191424136702701e-03 5.2335120322488791e-02 0.0000000000000000e+00  5.7049094280526605e-05 5.2967875383899653e-02 0.0000000000000000e+00  5.1391507059357661e-02 8.3386083458869797e-05 0.0000000000000000e+00  -5.3036842033174172e-02 -7.5830638064525109e-06 0.0000000000000000e+00  -4.7919577224393266e-02 8.1432081047929763e-05 0.0000000000000000e+00  6.6954365903252640e-05 4.6883900909919542e-02 0.0000000000000000e+00  -1.2626991257961307e-05 -5.3060039970295139e-02 0.0000000000000000e+00  -2.0601881205556009e-04 -4.7518152987669704e-02 0.0000000000000000e+00  5.3067122100553574e-02 -3.8177111991190366e-05 0.0000000000000000e+00  4.7560722330049272e-02 1.1600899403858025e-04 0.0000000000000000e+00  3.4719159373201855e-05 4.8378236108230645e-02 0.0000000000000000e+00  -5.2162639541516259e-02 2.8610232843874250e-04 0.0000000000000000e+00  -1.8087922512680880e-04 -4.8301674118748694e-02 0.0000000000000000e+00  2.2901888596186566e-04 4.8846743848331091e-02 0.0000000000000000e+00  -8.9561792793857898e-05 -4.8963715397616361e-02 0.0000000000000000e+00  1.4783405420535137e-02 1.4562768009827464e-02 0.0000000000000000e+00  2.8233531538588010e-02 3.2524901457560249e-02 0.0000000000000000e+00  -3.8039518312725966e-03 1.8535661784476350e-02 0.0000000000000000e+00  1.8322551317136839e-03 -5.2372364830224213e-02 0.0000000000000000e+00  -5.2214692162069566e-02 -1.6632878631383616e-03 0.0000000000000000e+00  -2.3543685375694029e-05 5.2848989664836823e-02 0.0000000000000000e+00  -2.0496152408953033e-06 -5.2943102026695846e-02 0.0000000000000000e+00  0.0000000000000000e+00 0.0000000000000000e+00 0.0000000000000000e+00  0.0000000000000000e+00 0.0000000000000000e+00 0.0000000000000000e+00  2.3311907163065786e-03 -4.5419688082367835e-02 0.0000000000000000e+00  -4.5402112241700938e-02 -1.5975545171857479e-03 0.0000000000000000e+00  -1.7259674167637830e-02 -4.5151729182027036e-03 0.0000000000000000e+00  2.8134811872724361e-02 -3.6826046420304639e-02 0.0000000000000000e+00  -4.5836008787850130e-02 -2.1657683664160706e-02 0.0000000000000000e+00  4.5212452769588872e-02 1.1333235132185704e-03 0.0000000000000000e+00  4.3850561291804515e-04 4.4820971151430355e-02 0.0000000000000000e+00  4.6361777598454938e-03 -1.7090422184842420e-02 0.0000000000000000e+00  0.0000000000000000e+00 0.0000000000000000e+00 0.0000000000000000e+00  4.9125802116831853e-02 -7.5943153514407746e-04 0.0000000000000000e+00  -4.3229118969231812e-03 -5.2905813233735471e-02 0.0000000000000000e+00  0.0000000000000000e+00 0.0000000000000000e+00 0.0000000000000000e+00  2.0732320436440819e-04 -4.9061091557650705e-02 0.0000000000000000e+00  0.0000000000000000e+00 0.0000000000000000e+00 0.0000000000000000e+00  2.8229184264572023e-04 4.9689624225554341e-02 0.0000000000000000e+00  -4.9845278690769941e-02 -4.2855656225824227e-04 0.0000000000000000e+00  0.0000000000000000e+00 0.0000000000000000e+00 0.0000000000000000e+00  0.0000000000000000e+00 0.0000000000000000e+00 0.0000000000000000e+00  0.0000000000000000e+00 0.0000000000000000e+00 0.0000000000000000e+00  3.4215294230612432e-05 -5.2955104790782921e-02 0.0000000000000000e+00  -7.6476886690343210e-05 5.2869926426780713e-02 0.0000000000000000e+00  5.3001519389048728e-02 1.4528803824217458e-05 0.0000000000000000e+00  5.2378786805734108e-02 -7.3995303346057427e-04 0.0000000000000000e+00  -5.2821026868758135e-02 -4.0740933099401558e-05 0.0000000000000000e+00  3.5406421962164265e-05 -5.2886965881572719e-02 0.0000000000000000e+00  7.4263933613263173e-05 5.2993061225473814e-02 0.0000000000000000e+00  -5.3075445682488613e-02 8.3848672052736403e-06 0.0000000000000000e+00  4.8317802575227817e-02 3.4527292144454016e-06 0.0000000000000000e+00  0.0000000000000000e+00 0.0000000000000000e+00 0.0000000000000000e+00  0.0000000000000000e+00 0.0000000000000000e+00 0.0000000000000000e+00  9.6892109920095287e-04 -5.0063794658573781e-02 0.0000000000000000e+00  -2.7529550117585163e-04 5.0204916129176859e-02 0.0000000000000000e+00  0.0000000000000000e+00 0.0000000000000000e+00 0.0000000000000000e+00  -5.1689787964696504e-02 5.9834747325077163e-04 0.0000000000000000e+00  0.0000000000000000e+00 0.0000000000000000e+00 0.0000000000000000e+00  0.0000000000000000e+00 0.0000000000000000e+00 0.0000000000000000e+00  5.1581087448015144e-02 1.9192189538421293e-04 0.0000000000000000e+00  -5.1209202826628039e-02 -5.2635154062652528e-05 0.0000000000000000e+00  0.0000000000000000e+00 0.0000000000000000e+00 0.0000000000000000e+00  0.0000000000000000e+00 0.0000000000000000e+00 0.0000000000000000e+00  -2.4802544384690223e-02 -3.9034268405657463e-02 0.0000000000000000e+00  -8.1062159278029274e-05 -5.3015853356594672e-02 0.0000000000000000e+00  -5.2822686471125008e-02 1.1747461003464059e-04 0.0000000000000000e+00  5.2954440227234084e-02 -1.1176267953780269e-05 0.0000000000000000e+00  4.7438108111433233e-05 5.2988545782028156e-02 0.0000000000000000e+00  -5.0212212945177782e-02 -2.2210656296718886e-04 0.0000000000000000e+00  2.6695013529732213e-04 4.9894557568492613e-02 0.0000000000000000e+00  -1.1021073288806876e-04 4.9082200324998375e-02 0.0000000000000000e+00  1.6777433192593358e-04 -4.9536876214573602e-02 0.0000000000000000e+00  6.2607159761776351e-05 -5.2886822683515869e-02 0.0000000000000000e+00  0.0000000000000000e+00 0.0000000000000000e+00 0.0000000000000000e+00  6.1647893224959453e-06 -5.2896370217777607e-02 0.0000000000000000e+00  -2.7737652327796094e-02 5.4320480711717353e-03 0.0000000000000000e+00  -4.1480331437041461e-02 2.7719862088516459e-02 0.0000000000000000e+00  4.8251302094156519e-02 2.2227602654057245e-02 0.0000000000000000e+00  -3.5007134087696530e-03 -5.0069990212180615e-02 0.0000000000000000e+00  1.5019946526981600e-02 -7.8409298623599252e-05 0.0000000000000000e+00  -5.0284771011965733e-02 -4.3544208226586233e-04 0.0000000000000000e+00  1.7505808746301966e-05 -5.0112705785867045e-02 0.0000000000000000e+00  -4.5789626511932407e-04 5.0255134101955715e-02 0.0000000000000000e+00  4.9838977775526198e-02 9.2102537029538481e-05 0.0000000000000000e+00  5.0327567351160091e-02 7.6314038015633042e-05 0.0000000000000000e+00  4.0799781323611295e-04 5.2289317880535542e-02 0.0000000000000000e+00  5.0787265625311939e-02 7.3953176930627697e-04 0.0000000000000000e+00  5.6431395623423699e-05 -5.2973128468546293e-02 0.0000000000000000e+00  4.2037917726897810e-05 5.2985757805087297e-02 0.0000000000000000e+00  5.2875665254877205e-02 2.9694567619864967e-05 0.0000000000000000e+00  -5.2925433754248512e-02 1.0045128058485599e-04 0.0000000000000000e+00  -4.9411215626072459e-02 4.4484388366900542e-04 0.0000000000000000e+00  -4.0421434492319782e-04 -5.2193094495961198e-02 0.0000000000000000e+00  -3.1104132851889245e-04 -4.8979552794739485e-02 0.0000000000000000e+00  -5.2241338681840957e-02 9.0747909638698725e-04 0.0000000000000000e+00  5.3030757907568754e-02 3.5362153978812846e-05 0.0000000000000000e+00  2.1659578935060960e-05 5.3004639893642715e-02 0.0000000000000000e+00  5.2230407832674519e-02 7.6040995305084373e-04 0.0000000000000000e+00  -6.3097784722828450e-03 3.2949811466391046e-02 0.0000000000000000e+00  0.0000000000000000e+00 0.0000000000000000e+00 0.0000000000000000e+00  0.0000000000000000e+00 0.0000000000000000e+00 0.0000000000000000e+00  0.0000000000000000e+00 0.0000000000000000e+00 0.0000000000000000e+00  -1.3310131673026974e-05 5.2999240613251508e-02 0.0000000000000000e+00  4.3831131352820122e-05 5.2825896546506414e-02 0.0000000000000000e+00  5.4471505146568408e-05 -5.2864789399984631e-02 0.0000000000000000e+00  -5.2927831607248475e-02 1.8020821873536726e-05 0.0000000000000000e+00  0.0000000000000000e+00 0.0000000000000000e+00 0.0000000000000000e+00  -2.5236686247514032e-05 -5.2951581665420196e-02 0.0000000000000000e+00  0.0000000000000000e+00 0.0000000000000000e+00 0.0000000000000000e+00  -4.8830120983097781e-02 -2.2314666368275264e-05 0.0000000000000000e+00  -7.7512221777356732e-05 -5.2923120022997525e-02 0.0000000000000000e+00  -3.8715174938998864e-03 4.9077509968385669e-02 0.0000000000000000e+00  -5.7611387796586552e-03 5.1673958389360376e-02 0.0000000000000000e+00  -5.3111432644066800e-02 7.1235080384166159e-06