<?xml version="1.0"?>
<VTKFile type="UnstructuredGrid"  version="0.1"  >
<UnstructuredGrid>
<Piece  NumberOfPoints="778" NumberOfCells="1401">
<Points>
<DataArray  type="Float64"  NumberOfComponents="3"  format="ascii">1 -1 0  6 -1 0  6 1 0  1 1 0  1 6 0  -1 6 0  -1 1 0  -6 1 0  -6 -1 0  -1 -1 0  -1 -6 0  1 -6 0  1 3.5 0  -1 3.5 0  -1 -3.5 0  1 -3.5 0  3.5 -1 0  3.5 1 0  -3.5 -1 0  -3.5 1 0  -1 -2.25 0  1 -2.25 0  2.25 -1 0  2.25 1 0  -1 2.25 0  1 2.25 0  -1 4.75 0  1 4.75 0  -4.75 -1 0  -4.75 1 0  -2.25 1 0  -2.25 -1 0  1 -4.75 0  -1 -4.75 0  4.75 1 0  4.75 -1 0  0 0 0  -2.875 0 0  -1.625 0 0  -4.125 0 0  -6 0 0  0 2.875 0  2.875 0 0  0 6 0  1.625 0 0  0 -2.875 0  0 -1.625 0  0 1.625 0  0 4.125 0  0 -6 0  0 -4.125 0  4.125 0 0  6 0 0  -0.109375 5.0625 0  -5.0625 -0.109375 0  -0.109375 -5.0625 0  5.0625 0.109375 0  0.8125 -0.1875 0  -0.1875 -0.8125 0  -0.8125 0.1875 0  -0.1875 0.8125 0  1 5.375 0  -5.375 1 0  1 -5.375 0  5.375 -1 0  0.53515625 0.46484375 0  -5.375 -1 0  -1 5.375 0  -1 -5.375 0  -0.5 -6 0  5.375 1 0  6 0.5 0  3.5 0.3046875 0  3.43125 -0.34765625 0  2.875 -1 0  4.125 1 0  0.3046875 3.5 0  -0.34765625 3.56875 0  -1 4.125 0  1 4.125 0  -0.3046875 2.25 0  0.34765625 2.18125 0  1 1.625 0  -1 -1.625 0  -0.3046875 -3.5 0  0.34765625 -3.56875 0  1 -4.125 0  0.3046875 -2.25 0  -0.34765625 -2.18125 0  -1 -4.125 0  -1 -2.875 0  1 -2.875 0  1 -1.625 0  1.625 -1 0  1.625 1 0  2.25 0.3046875 0  2.18125 -0.34765625 0  4.125 -1 0  2.875 1 0  1 2.875 0  -1 1.625 0  -1 2.875 0  -4.125 -1 0  -2.25 0.3046875 0  -2.31875 -0.34765625 0  -2.875 -1 0  -1.625 1 0  -4.125 1 0  -3.5 0.3046875 0  -3.56875 -0.34765625 0  -1.625 -1 0  -2.875 1 0  0.380626321794301 1.06853329530276 0  -1.110819327731092 -0.3739495798319328 0  0.3739495798319328 -1.110819327731092 0  1.151210293219304 0.3991939332620648 0  -0.5 -4.4375 0  0.5 -4.4375 0  5.481553398058253 -0.3712833737864077 0  0.5 4.4375 0  0.5 6 0  -0.522503783594538 -0.3265648647465863 0  -1.3125 0.5 0  -0.5 6 0  0.3265648647465863 -0.522503783594538 0  4.4375 0.5 0  4.4375 -0.5 0  0.5 -6 0  -6 -0.5 0  -5.481553398058253 0.3712833737864077 0  -4.55 -0.4296875 0  -4.4375 0.5 0  -0.5 4.4375 0  0.4792930825242718 5.026881067961165 0  0.4792930825242718 -5.026881067961165 0  -0.5 1.3125 0  1.3125 -0.5 0  -0.5 -1.3125 0  0.25 5.518539952962044 0  0.2125133872612723 -5.500076563152851 0  4.969341874373811 -0.5152550785163683 0  -4.969341874373811 0.5152550785163683 0  3.927189744345589 -0.4712876597840069 0  -5.554036458333333 -0.25 0  5.554036458333333 0.25 0  -0.4690710616438356 -5.462756849315069 0  -0.4690710616438356 5.462756849315069 0  -6 0.5 0  -1.59556436210848 -0.5 0  -3.058421751829955 -0.5 0  -0.5 2.731982421875 0  0.5 2.691578248170045 0  2.691578248170045 -0.5 0  1.641211254104555 0.5 0  0.5 -1.768017578125 0  0.5 -3.058421751829955 0  0.5 1.699267578125 0  3.018017578125 0.5 0  -0.5 -3.018017578125 0  -2.731982421875 0.5 0  6 -0.5 0  -4.050017120925308 -0.5006099332648871 0  -3.940668202764977 0.5371363767281105 0  3.940668202764977 0.5371363767281105 0  0.4517449476047904 3.958458083832335 0  -0.4517449476047904 -3.958458083832335 0  -1.809331797235023 0.5371363767281105 0  -0.4517449476047904 1.791541916167665 0  -0.0546875 4.59375 0  -5.006445312499999 -0.58984375 0  4.605643203883496 -0.04725424757281554 0  4.90625 0.5546875 0  -0.5546875 4.90625 0  0.04725424757281554 -4.605643203883496 0  -0.586116118210531 -4.995821561900013 0  -4.603710222472543 0.04846236095466061 0  -3.1875 0.65234375 0  0.6163907621110913 3.147502300973589 0  2.5625 0.65234375 0  0.6163907621110913 -2.602497699026411 0  -0.637456713551384 3.189259902731882 0  -0.637456713551384 -2.560740097268118 0  -0.34765625 0.34765625 0  -0.639453125 0.708203125 0  0.089630126953125 0.437286376953125 0  -0.4238281249999999 -1.746875 0  1.746875 -0.4238281249999999 0  -0.4238281249999999 4.003125 0  0.4238281249999999 -4.003125 0  -2.5625 -1 0  3.1875 -1 0  -0.09375 -1.21875 0  1.21875 -0.09375 0  0.4020305405760241 -0.1120343241705621 0  -0.6280191027904287 -0.7577505545748082 0  0.90625 -0.59375 0  -1.205500904741459 0.03633725387965409 0  -0.02129048848213058 1.202028574265107 0  -0.1120343241705621 -0.4020305405760241 0  1 1.3125 0  -2.003587563743074 -0.6442361556699288 0  0.6640077663259718 -1.395873598614549 0  5.6875 -1 0  0.6308138580859101 -5.592151086468728 0  -5.6875 -1 0  0.6568032075915271 5.612942566073222 0  5.616530031741774 0.6612875396772174 0  -5.6875 1 0  1.9375 1 0  -1.3125 -1 0  0.1524679547155687 -3.232579139388032 0  0.1524679547155687 2.517420860611968 0  -3.232579139388032 -0.1524679547155687 0  -1.932320553757026 -0.252759244693845 0  2.517420860611968 -0.1524679547155687 0  -0.04776045819569434 -2.464949198504599 0  -0.2420369079104247 3.187693796852321 0  3.751304711039982 -0.1203080877045035 0  -5.397601941771943 -0.609026059866711 0  1.3125 1 0  1.9375 -1 0  -0.6946315101963667 -2.018229242739021 0  -0.6946315101963667 3.731770757260979 0  1 -3.8125 0  2.014364435550335 0.6166648446293641 0  -1 5.6875 0  -1 -5.6875 0  -2.653476149871182 -0.5942957192996303 0  3.096523850128818 -0.5942957192996303 0  1 1.9375 0  -3.8125 -1 0  0.586975531244212 -0.7975955463807081 0  -0.2946248980953088 -4.743710873809568 0  2.625453376770019 0.2814788818359375 0  -3.124546623229981 0.2814788818359375 0  -0.1204856417894853 5.631800603217465 0  5.253862011026742 0.6581468962876398 0  -0.65234375 2.108701557941197 0  0.65234375 3.641298442058803 0  -0.65234375 -3.641298442058803 0  -0.25 -5.744880569758637 0  -4.4375 -1 0  -0.3166212631734941 -2.713595940002554 0  0.6591479224207506 0.1324305912687024 0  0.8660781906552419 0.6468634238104103 0  -0.9887189158197679 0.6452930723873549 0  0.3149351927204296 -1.460971774996065 0  -0.3572852727880474 -0.009629022788047503 0  2.09375 -0.6866724363772454 0  0.6866724363772454 -3.65625 0  0.6866724363772454 2.09375 0  -3.65625 -0.6866724363772454 0  -3.5371337890625 0.65234375 0  -0.1389584113023952 1.944025352615082 0  -2.151744288472698 0.65234375 0  -0.1389584113023951 -3.805974647384918 0  0.1389584113023951 3.805974647384918 0  -2.578772109813904 0.1857224367977529 0  3.171227890186096 0.1857224367977529 0  3.360315647536819 0.65234375 0  0.1857224367977528 -1.921227890186096 0  0.65234375 -2.110315647536819 0  1.894016528727564 0.2415406141485869 0  -3.738232421875 0 0  0.2516875549238616 3.139069895099618 0  -1.913724396854074 0.2011142179916434 0  0.1669456568161915 0.7843410671359501 0  -2.5625 1 0  -1 -3.1875 0  -1 2.5625 0  0.1736601499778735 4.857955663330752 0  -0.1893536587212888 2.577300639071919 0  -0.1893536587212888 -3.172699360928081 0  3.852271904453858 0.206603749322895 0  -3.8125 1 0  -0.1250095034621793 -5.421707592768541 0  3.8125 -1 0  3.617304217264373 -0.6578427703661498 0  0.2630176195580202 -2.636558318495885 0  0.2674330357770522 1.399517071108871 0  0.631726413079416 1.339254523727593 0  4.700571879807737 0.2813704945051134 0  0.7143844363649634 -3.319538455208831 0  2.430461544791169 -0.7143844363649634 0  0.7143844363649634 2.430461544791169 0  -3.319538455208831 -0.7143844363649634 0  5.687045771608623 -0.6520598572553891 0  -5.687045771608623 0.6520598572553891 0  -1.15625 -0.7048248829733235 0  3.438284572973296 -0.01860298867862281 0  -0.03021088078697859 3.451572359862192 0  2.216682837011589 -0.02159585961918548 0  -2.191580885932936 -0.03126387444658879 0  0.1857410764408683 1.895679405349457 0  3.103473238297955 -0.253270943723272 0  -2.646526761702045 -0.253270943723272 0  -2.333137350671861 -0.6791984914172315 0  -1 5.0625 0  -0.6971235589909319 5.213002544375844 0  0.01618705363819947 2.225929180591695 0  0.01618705363819947 -3.524070819408305 0  0.5690054882403073 0.7951310720450595 0  -0.5764940424412852 -3.329579265180942 0  -0.5764940424412852 2.420420734819058 0  3.8125 1 0  -5.372163860234628 0.04365139563106807 0  5.164108319316826 -0.225040894204947 0  -5.361952437854323 0.6744012088984681 0  -5.0625 1 0  5.286835586913878 -0.6616705837083201 0  -5.692815197359722 0.1186699900166531 0  5.663425996156958 -0.07763197815533956 0  -0.9219866027132193 -0.1143045829323572 0  -1.394333629759332 -0.2233077430199216 0  0.09322478991596644 -0.9616596638655462 0  5.0625 -1 0  -0.14412109375 -1.92169189453125 0  -4.28125 -0.7212148987671345 0  0.2649796277366407 0.1735162902120744 0  -4.907855692236596 0.1868230509619793 0  -1.9375 1 0  1 5.0625 0  0.6915124486819284 -5.272938212550202 0  0.683483242673902 5.284948082526911 0  2.5625 -1 0  -1 -3.8125 0  -1 1.9375 0  5.0625 1 0  -1 -1.9375 0  1 5.6875 0  1 -5.6875 0  -1.9375 -1 0  -1 -2.5625 0  -1 3.1875 0  1 -3.1875 0  1 -2.5625 0  1 2.5625 0  1 3.1875 0  -5.0625 -1 0  -1 -1.3125 0  1.3125 -1 0  -1 1.3125 0  -1 3.8125 0  -1 4.4375 0  -4.4375 1 0  4.4375 -1 0  4.4375 1 0  -1.3125 1 0  1 4.4375 0  1 -4.4375 0  -1 -5.0625 0  -1 -4.4375 0  -3.1875 1 0  2.5625 1 0  1 -1.9375 0  1 -1.3125 0  5.6875 1 0  1 3.8125 0  3.1875 1 0  -3.1875 -1 0  1 -5.0625 0  1.35138038998199 0.6675097549271188 0  -0.465625 0.986328125 0  1.435958105992309 0.2563920171199723 0  1.915914614192913 -0.145782394639918 0  -0.8764440609469509 -0.5746869313612541 0  5.355194559946098 0.01566259380337612 0  -5.69333042954964 -0.5242868300459975 0  1.78125 -0.7320750794491524 0  0.7320750794491525 -3.96875 0  -0.3959075548864684 5.166422468926435 0  -4.770522389068053 -0.2123670725088856 0  -4.714160156249999 -0.69234375 0  -4.273484403713342 -0.278160994327167 0  0.9642590244517505 0.08196089404241463 0  0.3500261717645397 -4.727285205957206 0  0.6740868006020392 -4.765147848348443 0  0.6797550207247084 -1.089747806381148 0  -5.186479934354063 0.3046329157552757 0  -5.263288238215326 -0.3369092276308425 0  -2.433484016245305 0.5442571297016638 0  0.1707808983307866 -3.82363304980935 0  -0.1554012991031027 3.867535742674252 0  4.855508096805579 -0.2283975605264581 0  3.644517238097614 0.5646428152488787 0  0.05699603874439441 -0.6452791208413911 0  -0.3550018917972689 -0.5695324323732931 0  0.6
[...]
<PointData  Vectors="u"> 
<DataArray  type="Float64"  Name="u"  NumberOfComponents="3" format="ascii">0.0000000000000000e+00 0.0000000000000000e+00 0.0000000000000000e+00  0.0000000000000000e+00 0.0000000000000000e+00 0.0000000000000000e+00  0.0000000000000000e+00 0.0000000000000000e+00 0.0000000000000000e+00  0.0000000000000000e+00 0.0000000000000000e+00 0.0000000000000000e+00  0.0000000000000000e+00 0.0000000000000000e+00 0.0000000000000000e+00  0.0000000000000000e+00 0.0000000000000000e+00 0.0000000000000000e+00  0.0000000000000000e+00 0.0000000000000000e+00 0.0000000000000000e+00  0.0000000000000000e+00 0.0000000000000000e+00 0.0000000000000000e+00  0.0000000000000000e+00 0.0000000000000000e+00 0.0000000000000000e+00  0.0000000000000000e+00 0.0000000000000000e+00 0.0000000000000000e+00  0.0000000000000000e+00 0.0000000000000000e+00 0.0000000000000000e+00  0.0000000000000000e+00 0.0000000000000000e+00 0.0000000000000000e+00  0.0000000000000000e+00 0.0000000000000000e+00 0.0000000000000000e+00  0.0000000000000000e+00 0.0000000000000000e+00 0.0000000000000000e+00  0.0000000000000000e+00 0.0000000000000000e+00 0.0000000000000000e+00  0.0000000000000000e+00 0.0000000000000000e+00 0.0000000000000000e+00  0.0000000000000000e+00 0.0000000000000000e+00 0.0000000000000000e+00  0.0000000000000000e+00 0.0000000000000000e+00 0.0000000000000000e+00  0.0000000000000000e+00 0.0000000000000000e+00 0.0000000000000000e+00  0.0000000000000000e+00 0.0000000000000000e+00 0.0000000000000000e+00  0.0000000000000000e+00 0.0000000000000000e+00 0.0000000000000000e+00  0.0000000000000000e+00 0.0000000000000000e+00 0.0000000000000000e+00  0.0000000000000000e+00 0.0000000000000000e+00 0.0000000000000000e+00  0.0000000000000000e+00 0.0000000000000000e+00 0.0000000000000000e+00  0.0000000000000000e+00 0.0000000000000000e+00 0.0000000000000000e+00  0.0000000000000000e+00 0.0000000000000000e+00 0.0000000000000000e+00  0.0000000000000000e+00 0.0000000000000000e+00 0.0000000000000000e+00  0.0000000000000000e+00 0.0000000000000000e+00 0.0000000000000000e+00  0.0000000000000000e+00 0.0000000000000000e+00 0.0000000000000000e+00  0.0000000000000000e+00 0.0000000000000000e+00 0.0000000000000000e+00  0.0000000000000000e+00 0.0000000000000000e+00 0.0000000000000000e+00  0.0000000000000000e+00 0.0000000000000000e+00 0.0000000000000000e+00  0.0000000000000000e+00 0.0000000000000000e+00 0.0000000000000000e+00  0.0000000000000000e+00 0.0000000000000000e+00 0.0000000000000000e+00  0.0000000000000000e+00 0.0000000000000000e+00 0.0000000000000000e+00  0.0000000000000000e+00 0.0000000000000000e+00 0.0000000000000000e+00  -2.0189072328581702e-04 1.0211780607182428e-04 0.0000000000000000e+00  5.3657259679195678e-02 -1.1420680893876228e-05 0.0000000000000000e+00  5.1273295225005719e-02 6.1638456030489773e-05 0.0000000000000000e+00  5.3721239523144844e-02 4.0125085241960298e-06 0.0000000000000000e+00  5.3779417741893022e-02 3.6983392257821278e-05 0.0000000000000000e+00  1.2973872932167310e-05 5.3646763819562501e-02 0.0000000000000000e+00  -5.3567951937452701e-02 4.4718435942210737e-05 0.0000000000000000e+00  3.9886913060640418e-05 5.3578793114903114e-02 0.0000000000000000e+00  -5.1373657566156535e-02 1.2005147674484052e-04 0.0000000000000000e+00  6.7441813676127483e-06 -5.3610521167001317e-02 0.0000000000000000e+00  -1.1844549271411314e-05 -5.1205432267595517e-02 0.0000000000000000e+00  4.2491511745603877e-05 5.1143662333392535e-02 0.0000000000000000e+00  3.6432252985073218e-05 5.3603561467928260e-02 0.0000000000000000e+00  4.1858795855989243e-05 -5.3595707097774663e-02 0.0000000000000000e+00  6.9049418249871744e-05 -5.3669691570239944e-02 0.0000000000000000e+00  -5.3730539141587451e-02 -1.9666707066287448e-05 0.0000000000000000e+00  -5.3699567135747438e-02 -4.8254437440572395e-05 0.0000000000000000e+00  -6.6524910610998026e-05 5.3730732336148369e-02 0.0000000000000000e+00  5.3673449349885174e-02 -7.1396342600264190e-05 0.0000000000000000e+00  -8.2705928857215185e-05 -5.3483129449875988e-02 0.0000000000000000e+00  -5.3598178355601780e-02 -6.5507609898872083e-05 0.0000000000000000e+00  -3.4786609678807499e-02 -7.1936913638983970e-03 0.0000000000000000e+00  6.9895738824172701e-03 -3.4309979269285869e-02 0.0000000000000000e+00  3.4200783221680388e-02 7.0997168256261220e-03 0.0000000000000000e+00  7.2043065361936899e-03 3.4365846949009758e-02 0.0000000000000000e+00  0.0000000000000000e+00 0.0000000000000000e+00 0.0000000000000000e+00  0.0000000000000000e+00 0.0000000000000000e+00 0.0000000000000000e+00  0.0000000000000000e+00 0.0000000000000000e+00 0.0000000000000000e+00  0.0000000000000000e+00 0.0000000000000000e+00 0.0000000000000000e+00  -2.3978511491573942e-02 2.0240037862409976e-02 0.0000000000000000e+00  0.0000000000000000e+00 0.0000000000000000e+00 0.0000000000000000e+00  0.0000000000000000e+00 0.0000000000000000e+00 0.0000000000000000e+00  0.0000000000000000e+00 0.0000000000000000e+00 0.0000000000000000e+00  5.8756314244707659e-05 -5.1164909956914084e-02 0.0000000000000000e+00  0.0000000000000000e+00 0.0000000000000000e+00 0.0000000000000000e+00  -5.3453704193821457e-02 -1.1268149703616952e-06 0.0000000000000000e+00  -5.3792041196469575e-02 6.1354757964097623e-05 0.0000000000000000e+00  -5.3669194277325284e-02 2.0251788418677570e-05 0.0000000000000000e+00  0.0000000000000000e+00 0.0000000000000000e+00 0.0000000000000000e+00  0.0000000000000000e+00 0.0000000000000000e+00 0.0000000000000000e+00  3.1657706358300497e-05 5.3611020760270259e-02 0.0000000000000000e+00  -3.1367296289649292e-06 5.3720744810313407e-02 0.0000000000000000e+00  0.0000000000000000e+00 0.0000000000000000e+00 0.0000000000000000e+00  0.0000000000000000e+00 0.0000000000000000e+00 0.0000000000000000e+00  2.5514135138000009e-04 5.3389271419348558e-02 0.0000000000000000e+00  -3.7896121097501711e-04 5.3455015007313311e-02 0.0000000000000000e+00  0.0000000000000000e+00 0.0000000000000000e+00 0.0000000000000000e+00  0.0000000000000000e+00 0.0000000000000000e+00 0.0000000000000000e+00  4.2018319577406527e-05 -5.3604566735418385e-02 0.0000000000000000e+00  1.6991276129097053e-05 -5.3650473641258800e-02 0.0000000000000000e+00  0.0000000000000000e+00 0.0000000000000000e+00 0.0000000000000000e+00  -2.2806577080911370e-04 -5.3416822465282281e-02 0.0000000000000000e+00  4.6879303256824531e-04 -5.3506578622771798e-02 0.0000000000000000e+00  0.0000000000000000e+00 0.0000000000000000e+00 0.0000000000000000e+00  0.0000000000000000e+00 0.0000000000000000e+00 0.0000000000000000e+00  0.0000000000000000e+00 0.0000000000000000e+00 0.0000000000000000e+00  0.0000000000000000e+00 0.0000000000000000e+00 0.0000000000000000e+00  0.0000000000000000e+00 0.0000000000000000e+00 0.0000000000000000e+00  0.0000000000000000e+00 0.0000000000000000e+00 0.0000000000000000e+00  -5.3384431834462558e-02 3.3925296094980406e-04 0.0000000000000000e+00  -5.3410484194493103e-02 -3.4422923616363822e-04 0.0000000000000000e+00  0.0000000000000000e+00 0.0000000000000000e+00 0.0000000000000000e+00  0.0000000000000000e+00 0.0000000000000000e+00 0.0000000000000000e+00  0.0000000000000000e+00 0.0000000000000000e+00 0.0000000000000000e+00  0.0000000000000000e+00 0.0000000000000000e+00 0.0000000000000000e+00  0.0000000000000000e+00 0.0000000000000000e+00 0.0000000000000000e+00  0.0000000000000000e+00 0.0000000000000000e+00 0.0000000000000000e+00  5.3527754126904963e-02 3.5351676317042530e-04 0.0000000000000000e+00  5.3611417555903124e-02 -3.2079071096292308e-04 0.0000000000000000e+00  0.0000000000000000e+00 0.0000000000000000e+00 0.0000000000000000e+00  0.0000000000000000e+00 0.0000000000000000e+00 0.0000000000000000e+00  0.0000000000000000e+00 0.0000000000000000e+00 0.0000000000000000e+00  5.3498819660326519e-02 9.1231902759605264e-05 0.0000000000000000e+00  5.3689648930002408e-02 2.4544671180826575e-05 0.0000000000000000e+00  0.0000000000000000e+00 0.0000000000000000e+00 0.0000000000000000e+00  0.0000000000000000e+00 0.0000000000000000e+00 0.0000000000000000e+00  -9.9681062965348757e-03 4.5345484757853015e-02 0.0000000000000000e+00  4.6639030757122439e-02 -9.7414386167068885e-03 0.0000000000000000e+00  -9.2879577249397830e-03 -4.7082171625266241e-02 0.0000000000000000e+00  -4.7659318809601385e-02 8.7660645539354154e-03 0.0000000000000000e+00  3.9090112815775453e-05 -5.1091660480370796e-02 0.0000000000000000e+00  -9.5305770149990160e-07 -5.3690053332707321e-02 0.0000000000000000e+00  -5.3726930770543323e-02 -7.4397651854331498e-05 0.0000000000000000e+00  3.7986604476986696e-06 5.3590396784873956e-02 0.0000000000000000e+00  4.4420253881314468e-05 5.3569931892415344e-02 0.0000000000000000e+00  2.2725564658232351e-02 -1.4191496773854409e-02 0.0000000000000000e+00  5.1835341047470916e-02 7.2527740341583541e-03 0.0000000000000000e+00  2.2112076550012349e-05 5.1157663278349044e-02 0.0000000000000000e+00  -1.3671867908874476e-02 -2.2697013541018798e-02 0.0000000000000000e+00  -5.3574503520650463e-02 -3.9493082710728399e-05 0.0000000000000000e+00  -5.3718893823468276e-02 6.9197830941560024e-06 0.0000000000000000e+00  2.7755732063340026e-05 -5.3567385727763747e-02 0.0000000000000000e+00  5.3800153813105329e-02 -1.1487528087133398e-06 0.0000000000000000e+00  5.3632197096622251e-02 5.4701339761809707e-05 0.0000000000000000e+00  5.3795733612789200e-02 6.5059356512734499e-06 0.0000000000000000e+00  5.0910314171654154e-02 -1.5231238012818185e-05 0.0000000000000000e+00  1.7940187319302513e-05 5.3437422980255660e-02 0.0000000000000000e+00  -3.4808308367370900e-05 5.3725356548273026e-02 0.0000000000000000e+00  -3.1104489463659808e-05 -5.3656776878203104e-02 0.0000000000000000e+00  7.7504473610596810e-03 5.3211337890527254e-02 0.0000000000000000e+00  -5.2371012289159316e-02 -7.2363939516662248e-03 0.0000000000000000e+00  7.2692990191637911e-03 -5.1901729532029657e-02 0.0000000000000000e+00  3.4083077285980220e-05 5.3607078986843873e-02 0.0000000000000000e+00  -2.5540024513446312e-05 -5.3697098439173738e-02 0.0000000000000000e+00  -5.3771396778627197e-02 -6.0314682415715440e-05 0.0000000000000000e+00  5.1482408906525293e-02 1.8136637507267351e-06 0.0000000000000000e+00  -5.3634237904663401e-02 -2.9285938672493569e-05 0.0000000000000000e+00  5.3705609536291964e-02 -7.4673798705767439e-05 0.0000000000000000e+00  -5.3656875956275253e-02 -1.4176355238953347e-04 0.0000000000000000e+00  4.4823053071964677e-06 -5.3517160635515364e-02 0.0000000000000000e+00  1.7035951436235693e-05 5.3567520679890492e-02 0.0000000000000000e+00  5.2032109066197048e-02 1.1816871101421133e-04 0.0000000000000000e+00  5.3417342861988168e-02 -2.7931745380089207e-03 0.0000000000000000e+00  5.3711943814617857e-02 1.5824725328372684e-05 0.0000000000000000e+00  -5.9441779088199022e-06 5.3650665180250239e-02 0.0000000000000000e+00  -9.3555039009209431e-05 5.3538069839825238e-02 0.0000000000000000e+00  -5.3637992896280316e-02 -2.7999899661060203e-05 0.0000000000000000e+00  -5.3509819666317925e-02 2.7517330427585984e-03 0.0000000000000000e+00  -1.6288300116929233e-03 -5.3300789250574306e-02 0.0000000000000000e+00  -1.3151792185078518e-05 -5.3600094946286800e-02 0.0000000000000000e+00  -1.8914626601983391e-03 5.3650522463951078e-02 0.0000000000000000e+00  -5.3519390395697697e-02 9.8509272009241576e-05 0.0000000000000000e+00  1.0478746130081852e-04 -5.3565375583357951e-02 0.0000000000000000e+00  5.3676535363110019e-02 1.8657111315801238e-06 0.0000000000000000e+00  -5.1897857686216325e-02 -5.3510950112199908e-05 0.0000000000000000e+00  5.3693096819938585e-02 -4.2542707905575952e-06 0.0000000000000000e+00  5.1590219101718293e-02 -1.8384678144491387e-04 0.0000000000000000e+00  -5.1575367632540191e-02 -3.9219166685336995e-04 0.0000000000000000e+00  2.8425725633658714e-05 5.3612087506433051e-02 0.0000000000000000e+00  8.2901983922393306e-05 -5.3620409219384574e-02 0.0000000000000000e+00  5.1311612216905826e-02 1.4460804621961726e-03 0.0000000000000000e+00  1.5312207188607374e-03 5.3011786672372455e-02 0.0000000000000000e+00  5.7460515646047463e-05 5.3641960961358350e-02 0.0000000000000000e+00  5.2067389254557880e-02 8.7199398073706542e-05 0.0000000000000000e+00  -5.3711353118515250e-02 -7.3512501558430129e-06 0.0000000000000000e+00  -4.8598137416681265e-02 8.1537203046252624e-05 0.0000000000000000e+00  6.7985971383842782e-05 4.7564479834749582e-02 0.0000000000000000e+00  -1.2856889623394205e-05 -5.3734703730283224e-02 0.0000000000000000e+00  -2.0955998034080794e-04 -4.8199768327003185e-02 0.0000000000000000e+00  5.3741966715875035e-02 -3.8900238851505465e-05 0.0000000000000000e+00  4.8257982736351589e-02 1.1880734697378707e-04 0.0000000000000000e+00  3.5817847371350076e-05 4.9068337378716860e-02 0.0000000000000000e+00  -5.2848491711169315e-02 2.8804740956194137e-04 0.0000000000000000e+00  -1.8581170598846403e-04 -4.8989432496927360e-02 0.0000000000000000e+00  2.3307315011748611e-04 4.9551580841079870e-02 0.0000000000000000e+00  -9.2498077273784859e-05 -4.9686587776569556e-02 0.0000000000000000e+00  1.4980241568011378e-02 1.4762350742625684e-02 0.0000000000000000e+00  2.8619464622518385e-02 3.2960659719803588e-02 0.0000000000000000e+00  -3.8568744760396519e-03 1.8781979591538194e-02 0.0000000000000000e+00  1.8477212250151101e-03 -5.3048764272711942e-02 0.0000000000000000e+00  -5.2887603685368892e-02 -1.6795985477778912e-03 0.0000000000000000e+00  -2.3580057663036514e-05 5.3529793586361937e-02 0.0000000000000000e+00  -2.5888498569976554e-06 -5.3624873649154456e-02 0.0000000000000000e+00  0.0000000000000000e+00 0.0000000000000000e+00 0.0000000000000000e+00  0.0000000000000000e+00 0.0000000000000000e+00 0.0000000000000000e+00  2.3577108442576693e-03 -4.6016921691290312e-02 0.0000000000000000e+00  -4.5991451042526374e-02 -1.6218502239577620e-03 0.0000000000000000e+00  -1.7487593875764720e-02 -4.5778366080382899e-03 0.0000000000000000e+00  2.8490950742851722e-02 -3.7308561614635277e-02 0.0000000000000000e+00  -4.6439390960183125e-02 -2.1920337734103235e-02 0.0000000000000000e+00  4.5795660714416077e-02 1.1420267499086406e-03 0.0000000000000000e+00  4.4704240741067028e-04 4.5407248423314742e-02 0.0000000000000000e+00  4.6995913132272275e-03 -1.7316565326235846e-02 0.0000000000000000e+00  0.0000000000000000e+00 0.0000000000000000e+00 0.0000000000000000e+00  4.9829461075873133e-02 -7.6865917629028834e-04 0.0000000000000000e+00  -4.3344936725907167e-03 -5.3600205996486509e-02 0.0000000000000000e+00  0.0000000000000000e+00 0.0000000000000000e+00 0.0000000000000000e+00  2.0986093314269457e-04 -4.9770477986872043e-02 0.0000000000000000e+00  0.0000000000000000e+00 0.0000000000000000e+00 0.0000000000000000e+00  2.8629281469902244e-04 5.0395432846864728e-02 0.0000000000000000e+00  -5.0551104692163423e-02 -4.3470724304582782e-04 0.0000000000000000e+00  0.0000000000000000e+00 0.0000000000000000e+00 0.0000000000000000e+00  0.0000000000000000e+00 0.0000000000000000e+00 0.0000000000000000e+00  0.0000000000000000e+00 0.0000000000000000e+00 0.0000000000000000e+00  3.4719518584859568e-05 -5.3628935884694376e-02 0.0000000000000000e+00  -7.6829398053992036e-05 5.3543706224027460e-02 0.0000000000000000e+00  5.3675367545719894e-02 1.4712445577255195e-05 0.0000000000000000e+00  5.3051829719570197e-02 -7.4681429316317261e-04 0.0000000000000000e+00  -5.3493460529068199e-02 -4.1024115108061042e-05 0.0000000000000000e+00  3.5824395465481273e-05 -5.3560970232311510e-02 0.0000000000000000e+00  7.5492087487153428e-05 5.3675039227861376e-02 0.0000000000000000e+00  -5.3750535180736927e-02 8.4068213695118735e-06 0.0000000000000000e+00  4.9030627900697669e-02 3.5669281257543696e-06 0.0000000000000000e+00  0.0000000000000000e+00 0.0000000000000000e+00 0.0000000000000000e+00  0.0000000000000000e+00 0.0000000000000000e+00 0.0000000000000000e+00  9.7663401702689496e-04 -5.0777393170084902e-02 0.0000000000000000e+00  -2.7942283331841572e-04 5.0923989977718270e-02 0.0000000000000000e+00  0.0000000000000000e+00 0.0000000000000000e+00 0.0000000000000000e+00  -5.2369899154394259e-02 6.0246941762364325e-04 0.0000000000000000e+00  0.0000000000000000e+00 0.0000000000000000e+00 0.0000000000000000e+00  0.0000000000000000e+00 0.0000000000000000e+00 0.0000000000000000e+00  5.2252320728404050e-02 1.9542082261160245e-04 0.0000000000000000e+00  -5.1877810243845870e-02 -5.2654567550597869e-05 0.0000000000000000e+00  0.0000000000000000e+00 0.0000000000000000e+00 0.0000000000000000e+00  0.0000000000000000e+00 0.0000000000000000e+00 0.0000000000000000e+00  -2.5125014151007565e-02 -3.9548585520882029e-02 0.0000000000000000e+00  -8.3154675046922993e-05 -5.3704565021154206e-02 0.0000000000000000e+00  -5.3501879522700385e-02 1.1744045357306592e-04 0.0000000000000000e+00  5.3633020607452182e-02 -1.1889918385413093e-05 0.0000000000000000e+00  4.8142257345851898e-05 5.3662276355249117e-02 0.0000000000000000e+00  -5.0934482956370895e-02 -2.2397886461821299e-04 0.0000000000000000e+00  2.6954895194954734e-04 5.0619945192205563e-02 0.0000000000000000e+00  -1.1429159217735677e-04 4.9785694388418053e-02 0.0000000000000000e+00  1.7040973947594738e-04 -5.0256717694312981e-02 0.0000000000000000e+00  6.3549485150126586e-05 -5.3568648074506370e-02 0.0000000000000000e+00  0.0000000000000000e+00 0.0000000000000000e+00 0.0000000000000000e+00  6.2992582259192090e-06 -5.3580829751636604e-02 0.0000000000000000e+00  -2.8109686288848038e-02 5.4987289220273742e-03 0.0000000000000000e+00  -4.2029361607152753e-02 2.8074135935001941e-02 0.0000000000000000e+00  4.8896435657751147e-02 2.2505729334097439e-02 0.0000000000000000e+00  -3.5342420179454445e-03 -5.0720826623770941e-02 0.0000000000000000e+00  1.5222011305672018e-02 -8.7939228901431148e-05 0.0000000000000000e+00  -5.0995148511348967e-02 -4.3934346482855745e-04 0.0000000000000000e+00  1.7656079438331352e-05 -5.0817386819322186e-02 0.0000000000000000e+00  -4.6174143612698267e-04 5.0965517418692062e-02 0.0000000000000000e+00  5.0546791188748511e-02 9.4015512967046065e-05 0.0000000000000000e+00  5.1056871629862000e-02 7.9085097736142089e-05 0.0000000000000000e+00  4.1216109833024144e-04 5.2958168095593797e-02 0.0000000000000000e+00  5.1530351005509768e-02 7.4426364475473495e-04 0.0000000000000000e+00  5.6606112595685129e-05 -5.3646892465590290e-02 0.0000000000000000e+00  4.2327093160997623e-05 5.3659720327348719e-02 0.0000000000000000e+00  5.3553666667561020e-02 2.9359518907372195e-05 0.0000000000000000e+00  -5.3597798281168986e-02 1.0187505770754509e-04 0.0000000000000000e+00  -5.0136970242087672e-02 4.5239568823665204e-04 0.0000000000000000e+00  -4.0898426458865143e-04 -5.2860534334825814e-02 0.0000000000000000e+00  -3.1260435191366066e-04 -4.9696885254732731e-02 0.0000000000000000e+00  -5.2910365804009200e-02 9.1475522549188065e-04 0.0000000000000000e+00  5.3705429935124283e-02 3.5475046138270838e-05 0.0000000000000000e+00  2.2036757528072836e-05 5.3683312571778483e-02 0.0000000000000000e+00  5.2898866250821942e-02 7.6670359401113887e-04 0.0000000000000000e+00  -6.3939306077630490e-03 3.3384260240035386e-02 0.0000000000000000e+00  0.0000000000000000e+00 0.0000000000000000e+00 0.0000000000000000e+00  0.0000000000000000e+00 0.0000000000000000e+00 0.0000000000000000e+00  0.0000000000000000e+00 0.0000000000000000e+00 0.0000000000000000e+00  -1.3313797979980541e-05 5.3672921633817157e-02 0.0000000000000000e+00  4.4377230327866221e-05 5.3500523732537615e-02 0.0000000000000000e+00  5.4753824731612270e-05 -5.3538239250510579e-02 0.0000000000000000e+00  -5.3610487237283136e-02 1.9468636487474011e-05 0.0000000000000000e+00  0.0000000000000000e+00 0.0000000000000000e+00 0.0000000000000000e+00  -2.5906753122966038e-05 -5.3624373437820387e-02 0.0000000000000000e+00  0.0000000000000000e+00 0.0000000000000000e+00 0.0000000000000000e+00  -4.9537205357612787e-02 -2.1277952089112190e-05 0.0000000000000000e+00  -7.7724972532900406e-05 -5.3600062986201839e-02 0.0000000000000000e+00  -3.9091827286320494e-03 4.9721479298271615e-02 0.0000000000000000e+00  -5.7896051699745342e-03 5.2348611074132627e-02 0.0000000000000000e+00  -5.3790128782283717e-02 7.2339501863025763e-06