<?xml version="1.0"?>
<VTKFile type="UnstructuredGrid"  version="0.1"  >
<UnstructuredGrid>
<Piece  NumberOfPoints="778" NumberOfCells="1401">
<Points>
<DataArray  type="Float64"  NumberOfComponents="3"  format="ascii">1 -1 0  6 -1 0  6 1 0  1 1 0  1 6 0  -1 6 0  -1 1 0  -6 1 0  -6 -1 0  -1 -1 0  -1 -6 0  1 -6 0  1 3.5 0  -1 3.5 0  -1 -3.5 0  1 -3.5 0  3.5 -1 0  3.5 1 0  -3.5 -1 0  -3.5 1 0  -1 -2.25 0  1 -2.25 0  2.25 -1 0  2.25 1 0  -1 2.25 0  1 2.25 0  -1 4.75 0  1 4.75 0  -4.75 -1 0  -4.75 1 0  -2.25 1 0  -2.25 -1 0  1 -4.75 0  -1 -4.75 0  4.75 1 0  4.75 -1 0  0 0 0  -2.875 0 0  -1.625 0 0  -4.125 0 0  -6 0 0  0 2.875 0  2.875 0 0  0 6 0  1.625 0 0  0 -2.875 0  0 -1.625 0  0 1.625 0  0 4.125 0  0 -6 0  0 -4.125 0  4.125 0 0  6 0 0  -0.109375 5.0625 0  -5.0625 -0.109375 0  -0.109375 -5.0625 0  5.0625 0.109375 0  0.8125 -0.1875 0  -0.1875 -0.8125 0  -0.8125 0.1875 0  -0.1875 0.8125 0  1 5.375 0  -5.375 1 0  1 -5.375 0  5.375 -1 0  0.53515625 0.46484375 0  -5.375 -1 0  -1 5.375 0  -1 -5.375 0  -0.5 -6 0  5.375 1 0  6 0.5 0  3.5 0.3046875 0  3.43125 -0.34765625 0  2.875 -1 0  4.125 1 0  0.3046875 3.5 0  -0.34765625 3.56875 0  -1 4.125 0  1 4.125 0  -0.3046875 2.25 0  0.34765625 2.18125 0  1 1.625 0  -1 -1.625 0  -0.3046875 -3.5 0  0.34765625 -3.56875 0  1 -4.125 0  0.3046875 -2.25 0  -0.34765625 -2.18125 0  -1 -4.125 0  -1 -2.875 0  1 -2.875 0  1 -1.625 0  1.625 -1 0  1.625 1 0  2.25 0.3046875 0  2.18125 -0.34765625 0  4.125 -1 0  2.875 1 0  1 2.875 0  -1 1.625 0  -1 2.875 0  -4.125 -1 0  -2.25 0.3046875 0  -2.31875 -0.34765625 0  -2.875 -1 0  -1.625 1 0  -4.125 1 0  -3.5 0.3046875 0  -3.56875 -0.34765625 0  -1.625 -1 0  -2.875 1 0  0.380626321794301 1.06853329530276 0  -1.110819327731092 -0.3739495798319328 0  0.3739495798319328 -1.110819327731092 0  1.151210293219304 0.3991939332620648 0  -0.5 -4.4375 0  0.5 -4.4375 0  5.481553398058253 -0.3712833737864077 0  0.5 4.4375 0  0.5 6 0  -0.522503783594538 -0.3265648647465863 0  -1.3125 0.5 0  -0.5 6 0  0.3265648647465863 -0.522503783594538 0  4.4375 0.5 0  4.4375 -0.5 0  0.5 -6 0  -6 -0.5 0  -5.481553398058253 0.3712833737864077 0  -4.55 -0.4296875 0  -4.4375 0.5 0  -0.5 4.4375 0  0.4792930825242718 5.026881067961165 0  0.4792930825242718 -5.026881067961165 0  -0.5 1.3125 0  1.3125 -0.5 0  -0.5 -1.3125 0  0.25 5.518539952962044 0  0.2125133872612723 -5.500076563152851 0  4.969341874373811 -0.5152550785163683 0  -4.969341874373811 0.5152550785163683 0  3.927189744345589 -0.4712876597840069 0  -5.554036458333333 -0.25 0  5.554036458333333 0.25 0  -0.4690710616438356 -5.462756849315069 0  -0.4690710616438356 5.462756849315069 0  -6 0.5 0  -1.59556436210848 -0.5 0  -3.058421751829955 -0.5 0  -0.5 2.731982421875 0  0.5 2.691578248170045 0  2.691578248170045 -0.5 0  1.641211254104555 0.5 0  0.5 -1.768017578125 0  0.5 -3.058421751829955 0  0.5 1.699267578125 0  3.018017578125 0.5 0  -0.5 -3.018017578125 0  -2.731982421875 0.5 0  6 -0.5 0  -4.050017120925308 -0.5006099332648871 0  -3.940668202764977 0.5371363767281105 0  3.940668202764977 0.5371363767281105 0  0.4517449476047904 3.958458083832335 0  -0.4517449476047904 -3.958458083832335 0  -1.809331797235023 0.5371363767281105 0  -0.4517449476047904 1.791541916167665 0  -0.0546875 4.59375 0  -5.006445312499999 -0.58984375 0  4.605643203883496 -0.04725424757281554 0  4.90625 0.5546875 0  -0.5546875 4.90625 0  0.04725424757281554 -4.605643203883496 0  -0.586116118210531 -4.995821561900013 0  -4.603710222472543 0.04846236095466061 0  -3.1875 0.65234375 0  0.6163907621110913 3.147502300973589 0  2.5625 0.65234375 0  0.6163907621110913 -2.602497699026411 0  -0.637456713551384 3.189259902731882 0  -0.637456713551384 -2.560740097268118 0  -0.34765625 0.34765625 0  -0.639453125 0.708203125 0  0.089630126953125 0.437286376953125 0  -0.4238281249999999 -1.746875 0  1.746875 -0.4238281249999999 0  -0.4238281249999999 4.003125 0  0.4238281249999999 -4.003125 0  -2.5625 -1 0  3.1875 -1 0  -0.09375 -1.21875 0  1.21875 -0.09375 0  0.4020305405760241 -0.1120343241705621 0  -0.6280191027904287 -0.7577505545748082 0  0.90625 -0.59375 0  -1.205500904741459 0.03633725387965409 0  -0.02129048848213058 1.202028574265107 0  -0.1120343241705621 -0.4020305405760241 0  1 1.3125 0  -2.003587563743074 -0.6442361556699288 0  0.6640077663259718 -1.395873598614549 0  5.6875 -1 0  0.6308138580859101 -5.592151086468728 0  -5.6875 -1 0  0.6568032075915271 5.612942566073222 0  5.616530031741774 0.6612875396772174 0  -5.6875 1 0  1.9375 1 0  -1.3125 -1 0  0.1524679547155687 -3.232579139388032 0  0.1524679547155687 2.517420860611968 0  -3.232579139388032 -0.1524679547155687 0  -1.932320553757026 -0.252759244693845 0  2.517420860611968 -0.1524679547155687 0  -0.04776045819569434 -2.464949198504599 0  -0.2420369079104247 3.187693796852321 0  3.751304711039982 -0.1203080877045035 0  -5.397601941771943 -0.609026059866711 0  1.3125 1 0  1.9375 -1 0  -0.6946315101963667 -2.018229242739021 0  -0.6946315101963667 3.731770757260979 0  1 -3.8125 0  2.014364435550335 0.6166648446293641 0  -1 5.6875 0  -1 -5.6875 0  -2.653476149871182 -0.5942957192996303 0  3.096523850128818 -0.5942957192996303 0  1 1.9375 0  -3.8125 -1 0  0.586975531244212 -0.7975955463807081 0  -0.2946248980953088 -4.743710873809568 0  2.625453376770019 0.2814788818359375 0  -3.124546623229981 0.2814788818359375 0  -0.1204856417894853 5.631800603217465 0  5.253862011026742 0.6581468962876398 0  -0.65234375 2.108701557941197 0  0.65234375 3.641298442058803 0  -0.65234375 -3.641298442058803 0  -0.25 -5.744880569758637 0  -4.4375 -1 0  -0.3166212631734941 -2.713595940002554 0  0.6591479224207506 0.1324305912687024 0  0.8660781906552419 0.6468634238104103 0  -0.9887189158197679 0.6452930723873549 0  0.3149351927204296 -1.460971774996065 0  -0.3572852727880474 -0.009629022788047503 0  2.09375 -0.6866724363772454 0  0.6866724363772454 -3.65625 0  0.6866724363772454 2.09375 0  -3.65625 -0.6866724363772454 0  -3.5371337890625 0.65234375 0  -0.1389584113023952 1.944025352615082 0  -2.151744288472698 0.65234375 0  -0.1389584113023951 -3.805974647384918 0  0.1389584113023951 3.805974647384918 0  -2.578772109813904 0.1857224367977529 0  3.171227890186096 0.1857224367977529 0  3.360315647536819 0.65234375 0  0.1857224367977528 -1.921227890186096 0  0.65234375 -2.110315647536819 0  1.894016528727564 0.2415406141485869 0  -3.738232421875 0 0  0.2516875549238616 3.139069895099618 0  -1.913724396854074 0.2011142179916434 0  0.1669456568161915 0.7843410671359501 0  -2.5625 1 0  -1 -3.1875 0  -1 2.5625 0  0.1736601499778735 4.857955663330752 0  -0.1893536587212888 2.577300639071919 0  -0.1893536587212888 -3.172699360928081 0  3.852271904453858 0.206603749322895 0  -3.8125 1 0  -0.1250095034621793 -5.421707592768541 0  3.8125 -1 0  3.617304217264373 -0.6578427703661498 0  0.2630176195580202 -2.636558318495885 0  0.2674330357770522 1.399517071108871 0  0.631726413079416 1.339254523727593 0  4.700571879807737 0.2813704945051134 0  0.7143844363649634 -3.319538455208831 0  2.430461544791169 -0.7143844363649634 0  0.7143844363649634 2.430461544791169 0  -3.319538455208831 -0.7143844363649634 0  5.687045771608623 -0.6520598572553891 0  -5.687045771608623 0.6520598572553891 0  -1.15625 -0.7048248829733235 0  3.438284572973296 -0.01860298867862281 0  -0.03021088078697859 3.451572359862192 0  2.216682837011589 -0.02159585961918548 0  -2.191580885932936 -0.03126387444658879 0  0.1857410764408683 1.895679405349457 0  3.103473238297955 -0.253270943723272 0  -2.646526761702045 -0.253270943723272 0  -2.333137350671861 -0.6791984914172315 0  -1 5.0625 0  -0.6971235589909319 5.213002544375844 0  0.01618705363819947 2.225929180591695 0  0.01618705363819947 -3.524070819408305 0  0.5690054882403073 0.7951310720450595 0  -0.5764940424412852 -3.329579265180942 0  -0.5764940424412852 2.420420734819058 0  3.8125 1 0  -5.372163860234628 0.04365139563106807 0  5.164108319316826 -0.225040894204947 0  -5.361952437854323 0.6744012088984681 0  -5.0625 1 0  5.286835586913878 -0.6616705837083201 0  -5.692815197359722 0.1186699900166531 0  5.663425996156958 -0.07763197815533956 0  -0.9219866027132193 -0.1143045829323572 0  -1.394333629759332 -0.2233077430199216 0  0.09322478991596644 -0.9616596638655462 0  5.0625 -1 0  -0.14412109375 -1.92169189453125 0  -4.28125 -0.7212148987671345 0  0.2649796277366407 0.1735162902120744 0  -4.907855692236596 0.1868230509619793 0  -1.9375 1 0  1 5.0625 0  0.6915124486819284 -5.272938212550202 0  0.683483242673902 5.284948082526911 0  2.5625 -1 0  -1 -3.8125 0  -1 1.9375 0  5.0625 1 0  -1 -1.9375 0  1 5.6875 0  1 -5.6875 0  -1.9375 -1 0  -1 -2.5625 0  -1 3.1875 0  1 -3.1875 0  1 -2.5625 0  1 2.5625 0  1 3.1875 0  -5.0625 -1 0  -1 -1.3125 0  1.3125 -1 0  -1 1.3125 0  -1 3.8125 0  -1 4.4375 0  -4.4375 1 0  4.4375 -1 0  4.4375 1 0  -1.3125 1 0  1 4.4375 0  1 -4.4375 0  -1 -5.0625 0  -1 -4.4375 0  -3.1875 1 0  2.5625 1 0  1 -1.9375 0  1 -1.3125 0  5.6875 1 0  1 3.8125 0  3.1875 1 0  -3.1875 -1 0  1 -5.0625 0  1.35138038998199 0.6675097549271188 0  -0.465625 0.986328125 0  1.435958105992309 0.2563920171199723 0  1.915914614192913 -0.145782394639918 0  -0.8764440609469509 -0.5746869313612541 0  5.355194559946098 0.01566259380337612 0  -5.69333042954964 -0.5242868300459975 0  1.78125 -0.7320750794491524 0  0.7320750794491525 -3.96875 0  -0.3959075548864684 5.166422468926435 0  -4.770522389068053 -0.2123670725088856 0  -4.714160156249999 -0.69234375 0  -4.273484403713342 -0.278160994327167 0  0.9642590244517505 0.08196089404241463 0  0.3500261717645397 -4.727285205957206 0  0.6740868006020392 -4.765147848348443 0  0.6797550207247084 -1.089747806381148 0  -5.186479934354063 0.3046329157552757 0  -5.263288238215326 -0.3369092276308425 0  -2.433484016245305 0.5442571297016638 0  0.1707808983307866 -3.82363304980935 0  -0.1554012991031027 3.867535742674252 0  4.855508096805579 -0.2283975605264581 0  3.644517238097614 0.5646428152488787 0  0.05699603874439441 -0.6452791208413911 0  -0.3550018917972689 -0.5695324323732931 0  0.6
[...]
<PointData  Vectors="u"> 
<DataArray  type="Float64"  Name="u"  NumberOfComponents="3" format="ascii">0.0000000000000000e+00 0.0000000000000000e+00 0.0000000000000000e+00  0.0000000000000000e+00 0.0000000000000000e+00 0.0000000000000000e+00  0.0000000000000000e+00 0.0000000000000000e+00 0.0000000000000000e+00  0.0000000000000000e+00 0.0000000000000000e+00 0.0000000000000000e+00  0.0000000000000000e+00 0.0000000000000000e+00 0.0000000000000000e+00  0.0000000000000000e+00 0.0000000000000000e+00 0.0000000000000000e+00  0.0000000000000000e+00 0.0000000000000000e+00 0.0000000000000000e+00  0.0000000000000000e+00 0.0000000000000000e+00 0.0000000000000000e+00  0.0000000000000000e+00 0.0000000000000000e+00 0.0000000000000000e+00  0.0000000000000000e+00 0.0000000000000000e+00 0.0000000000000000e+00  0.0000000000000000e+00 0.0000000000000000e+00 0.0000000000000000e+00  0.0000000000000000e+00 0.0000000000000000e+00 0.0000000000000000e+00  0.0000000000000000e+00 0.0000000000000000e+00 0.0000000000000000e+00  0.0000000000000000e+00 0.0000000000000000e+00 0.0000000000000000e+00  0.0000000000000000e+00 0.0000000000000000e+00 0.0000000000000000e+00  0.0000000000000000e+00 0.0000000000000000e+00 0.0000000000000000e+00  0.0000000000000000e+00 0.0000000000000000e+00 0.0000000000000000e+00  0.0000000000000000e+00 0.0000000000000000e+00 0.0000000000000000e+00  0.0000000000000000e+00 0.0000000000000000e+00 0.0000000000000000e+00  0.0000000000000000e+00 0.0000000000000000e+00 0.0000000000000000e+00  0.0000000000000000e+00 0.0000000000000000e+00 0.0000000000000000e+00  0.0000000000000000e+00 0.0000000000000000e+00 0.0000000000000000e+00  0.0000000000000000e+00 0.0000000000000000e+00 0.0000000000000000e+00  0.0000000000000000e+00 0.0000000000000000e+00 0.0000000000000000e+00  0.0000000000000000e+00 0.0000000000000000e+00 0.0000000000000000e+00  0.0000000000000000e+00 0.0000000000000000e+00 0.0000000000000000e+00  0.0000000000000000e+00 0.0000000000000000e+00 0.0000000000000000e+00  0.0000000000000000e+00 0.0000000000000000e+00 0.0000000000000000e+00  0.0000000000000000e+00 0.0000000000000000e+00 0.0000000000000000e+00  0.0000000000000000e+00 0.0000000000000000e+00 0.0000000000000000e+00  0.0000000000000000e+00 0.0000000000000000e+00 0.0000000000000000e+00  0.0000000000000000e+00 0.0000000000000000e+00 0.0000000000000000e+00  0.0000000000000000e+00 0.0000000000000000e+00 0.0000000000000000e+00  0.0000000000000000e+00 0.0000000000000000e+00 0.0000000000000000e+00  0.0000000000000000e+00 0.0000000000000000e+00 0.0000000000000000e+00  0.0000000000000000e+00 0.0000000000000000e+00 0.0000000000000000e+00  -1.2084253107237906e-04 3.3254302028234681e-05 0.0000000000000000e+00  1.9663088953994323e-02 -5.3852421203935680e-06 0.0000000000000000e+00  1.8701147154238488e-02 5.4468319236619298e-05 0.0000000000000000e+00  1.9671771776289777e-02 -2.0054956410112921e-08 0.0000000000000000e+00  1.9694538831318543e-02 1.7241291534169506e-05 0.0000000000000000e+00  4.6900957148919254e-06 1.9628533027190538e-02 0.0000000000000000e+00  -1.9615222690633233e-02 2.2761010279040380e-05 0.0000000000000000e+00  1.7885742775444835e-05 1.9635094678960085e-02 0.0000000000000000e+00  -1.8738450474983234e-02 6.8016243406451266e-05 0.0000000000000000e+00  6.5205933654841728e-06 -1.9632005173444662e-02 0.0000000000000000e+00  -2.5167474825443559e-05 -1.8589280986728723e-02 0.0000000000000000e+00  2.1322771971585218e-05 1.8588761137842975e-02 0.0000000000000000e+00  2.0301405320456893e-05 1.9641138694629651e-02 0.0000000000000000e+00  1.9933584586263095e-05 -1.9632659662291340e-02 0.0000000000000000e+00  2.7385962936665717e-05 -1.9666858205792056e-02 0.0000000000000000e+00  -1.9682332509127837e-02 -3.8743551961933736e-06 0.0000000000000000e+00  -1.9654142573245700e-02 -1.8992293794336309e-05 0.0000000000000000e+00  -2.0829460729943048e-05 1.9686134671458251e-02 0.0000000000000000e+00  1.9631369181509688e-02 -1.7873197012343881e-05 0.0000000000000000e+00  -2.9218702074216855e-05 -1.9512421472587818e-02 0.0000000000000000e+00  -1.9577474190660912e-02 -2.1801839908691716e-05 0.0000000000000000e+00  -1.2636354717435905e-02 -2.6890586883274721e-03 0.0000000000000000e+00  2.4644572371534685e-03 -1.2329363609228030e-02 0.0000000000000000e+00  1.2284894597599218e-02 2.7147718190102844e-03 0.0000000000000000e+00  2.6457558551984672e-03 1.2343910576981556e-02 0.0000000000000000e+00  0.0000000000000000e+00 0.0000000000000000e+00 0.0000000000000000e+00  0.0000000000000000e+00 0.0000000000000000e+00 0.0000000000000000e+00  0.0000000000000000e+00 0.0000000000000000e+00 0.0000000000000000e+00  0.0000000000000000e+00 0.0000000000000000e+00 0.0000000000000000e+00  -8.7357537923264169e-03 7.2644649654555965e-03 0.0000000000000000e+00  0.0000000000000000e+00 0.0000000000000000e+00 0.0000000000000000e+00  0.0000000000000000e+00 0.0000000000000000e+00 0.0000000000000000e+00  0.0000000000000000e+00 0.0000000000000000e+00 0.0000000000000000e+00  3.7984769894975464e-05 -1.8757556693251909e-02 0.0000000000000000e+00  0.0000000000000000e+00 0.0000000000000000e+00 0.0000000000000000e+00  -1.9598464597123715e-02 -4.0602753667199633e-06 0.0000000000000000e+00  -1.9449251446777352e-02 3.3220798563827590e-05 0.0000000000000000e+00  -1.9389854342315768e-02 -6.4117820710919743e-06 0.0000000000000000e+00  0.0000000000000000e+00 0.0000000000000000e+00 0.0000000000000000e+00  0.0000000000000000e+00 0.0000000000000000e+00 0.0000000000000000e+00  9.4670797555874350e-06 1.9571685220727407e-02 0.0000000000000000e+00  -6.9980690216076014e-06 1.9559122611721907e-02 0.0000000000000000e+00  0.0000000000000000e+00 0.0000000000000000e+00 0.0000000000000000e+00  0.0000000000000000e+00 0.0000000000000000e+00 0.0000000000000000e+00  9.4766454379772340e-05 1.9371158867163681e-02 0.0000000000000000e+00  -1.6244785962208136e-04 1.9506466496288715e-02 0.0000000000000000e+00  0.0000000000000000e+00 0.0000000000000000e+00 0.0000000000000000e+00  0.0000000000000000e+00 0.0000000000000000e+00 0.0000000000000000e+00  3.4197666026637512e-05 -1.9478148386285969e-02 0.0000000000000000e+00  6.7364824763981158e-06 -1.9594595203492996e-02 0.0000000000000000e+00  0.0000000000000000e+00 0.0000000000000000e+00 0.0000000000000000e+00  -9.0506322708316413e-05 -1.9553398902201424e-02 0.0000000000000000e+00  1.9499618484058055e-04 -1.9452063060137127e-02 0.0000000000000000e+00  0.0000000000000000e+00 0.0000000000000000e+00 0.0000000000000000e+00  0.0000000000000000e+00 0.0000000000000000e+00 0.0000000000000000e+00  0.0000000000000000e+00 0.0000000000000000e+00 0.0000000000000000e+00  0.0000000000000000e+00 0.0000000000000000e+00 0.0000000000000000e+00  0.0000000000000000e+00 0.0000000000000000e+00 0.0000000000000000e+00  0.0000000000000000e+00 0.0000000000000000e+00 0.0000000000000000e+00  -1.9299890984058241e-02 1.5783569888988758e-04 0.0000000000000000e+00  -1.9493793680664437e-02 -1.3740342392144940e-04 0.0000000000000000e+00  0.0000000000000000e+00 0.0000000000000000e+00 0.0000000000000000e+00  0.0000000000000000e+00 0.0000000000000000e+00 0.0000000000000000e+00  0.0000000000000000e+00 0.0000000000000000e+00 0.0000000000000000e+00  0.0000000000000000e+00 0.0000000000000000e+00 0.0000000000000000e+00  0.0000000000000000e+00 0.0000000000000000e+00 0.0000000000000000e+00  0.0000000000000000e+00 0.0000000000000000e+00 0.0000000000000000e+00  1.9289807653878818e-02 1.8114978142336067e-04 0.0000000000000000e+00  1.9359383987144985e-02 -1.1373716401128395e-04 0.0000000000000000e+00  0.0000000000000000e+00 0.0000000000000000e+00 0.0000000000000000e+00  0.0000000000000000e+00 0.0000000000000000e+00 0.0000000000000000e+00  0.0000000000000000e+00 0.0000000000000000e+00 0.0000000000000000e+00  1.9331808318081924e-02 3.1758447489919397e-05 0.0000000000000000e+00  1.9614770133960121e-02 8.7771512036545749e-06 0.0000000000000000e+00  0.0000000000000000e+00 0.0000000000000000e+00 0.0000000000000000e+00  0.0000000000000000e+00 0.0000000000000000e+00 0.0000000000000000e+00  -3.6236607307050662e-03 1.6257358830988534e-02 0.0000000000000000e+00  1.6767310994991461e-02 -3.7144934031554020e-03 0.0000000000000000e+00  -3.3598195036158946e-03 -1.6994781257562583e-02 0.0000000000000000e+00  -1.7179462268184207e-02 3.2742626639356348e-03 0.0000000000000000e+00  2.9933971843621142e-05 -1.8627765809705883e-02 0.0000000000000000e+00  -6.0029305692152946e-06 -1.9550406778167793e-02 0.0000000000000000e+00  -1.9440493618304883e-02 -2.1447268507581146e-05 0.0000000000000000e+00  -9.1260824070080191e-07 1.9517799679720199e-02 0.0000000000000000e+00  4.1975705069136102e-05 1.9392529729397819e-02 0.0000000000000000e+00  8.2398683946604424e-03 -5.1525394555766834e-03 0.0000000000000000e+00  1.8689509022052967e-02 2.6837980656192030e-03 0.0000000000000000e+00  2.7308153942218575e-05 1.8729368349947897e-02 0.0000000000000000e+00  -4.8295295285595233e-03 -8.1272543528160459e-03 0.0000000000000000e+00  -1.9309979565404950e-02 2.0353111556678618e-05 0.0000000000000000e+00  -1.9560384896111060e-02 8.9315348524850413e-06 0.0000000000000000e+00  4.3952462909628641e-05 -1.9328546289744460e-02 0.0000000000000000e+00  1.9601237032753661e-02 1.0384020050452405e-05 0.0000000000000000e+00  1.9398387554197448e-02 2.6627204099082884e-05 0.0000000000000000e+00  1.9521944163677141e-02 5.1286228193052700e-06 0.0000000000000000e+00  1.8469589761740998e-02 -8.4692082929535772e-06 0.0000000000000000e+00  2.8988418458107193e-05 1.9366241240965351e-02 0.0000000000000000e+00  -2.6893367262219088e-05 1.9547964858213820e-02 0.0000000000000000e+00  -9.8657131461204306e-06 -1.9452787500833606e-02 0.0000000000000000e+00  3.0765232604083028e-03 1.9281674422892817e-02 0.0000000000000000e+00  -1.8859490413142155e-02 -2.8762205615175413e-03 0.0000000000000000e+00  2.6475148401559289e-03 -1.8730977629626947e-02 0.0000000000000000e+00  1.4805194642430891e-05 1.9582722319314416e-02 0.0000000000000000e+00  -7.9152890949264100e-06 -1.9680811533673275e-02 0.0000000000000000e+00  -1.9574900728533334e-02 -4.2490711876306738e-05 0.0000000000000000e+00  1.8522527973126268e-02 1.3406525455463108e-05 0.0000000000000000e+00  -1.9407883963610949e-02 -9.4502140519030904e-06 0.0000000000000000e+00  1.9475038451792191e-02 -4.1391884899276275e-06 0.0000000000000000e+00  -1.9592960661967935e-02 -5.1696425952864100e-05 0.0000000000000000e+00  8.5853811584136422e-06 -1.9425678841033470e-02 0.0000000000000000e+00  2.5728946711253708e-06 1.9403931053518050e-02 0.0000000000000000e+00  1.8879957888718706e-02 5.6512691174599478e-05 0.0000000000000000e+00  1.9398505850046179e-02 -1.1067326964837427e-03 0.0000000000000000e+00  1.9484570894311035e-02 -2.3192305529171872e-06 0.0000000000000000e+00  1.4128796447221199e-05 1.9445906171566343e-02 0.0000000000000000e+00  -5.0319545556900054e-05 1.9367958572427856e-02 0.0000000000000000e+00  -1.9448401312408804e-02 -5.7507036728480287e-06 0.0000000000000000e+00  -1.9433042258392201e-02 1.1287952033753900e-03 0.0000000000000000e+00  -7.4604114531721694e-04 -1.9435184757985925e-02 0.0000000000000000e+00  1.0430330637286616e-05 -1.9366649244756107e-02 0.0000000000000000e+00  -8.2382639105209690e-04 1.9575274588542770e-02 0.0000000000000000e+00  -1.9530362266588386e-02 5.3956486012196217e-05 0.0000000000000000e+00  2.7087961422441181e-05 -1.9431450852463932e-02 0.0000000000000000e+00  1.9364747443265894e-02 2.2235966155444210e-06 0.0000000000000000e+00  -1.8695455199998098e-02 -2.1253778592167556e-06 0.0000000000000000e+00  1.9558347480967353e-02 -3.1927169293687196e-06 0.0000000000000000e+00  1.8618932120144375e-02 -6.9892971922359964e-05 0.0000000000000000e+00  -1.8644086119489072e-02 -1.4265579786133128e-04 0.0000000000000000e+00  2.4321859081353601e-05 1.9406628463721189e-02 0.0000000000000000e+00  3.1675958946114834e-05 -1.9381775268983725e-02 0.0000000000000000e+00  1.8648860446243774e-02 5.8384090773445864e-04 0.0000000000000000e+00  6.4568201182843077e-04 1.9266239774847774e-02 0.0000000000000000e+00  2.5706354273186380e-05 1.9638934199641623e-02 0.0000000000000000e+00  1.8768282778607429e-02 -1.1195466011990684e-06 0.0000000000000000e+00  -1.9670434283392595e-02 -4.8302981112956202e-06 0.0000000000000000e+00  -1.6884105753408533e-02 3.8488194260543593e-05 0.0000000000000000e+00  1.9995576167084323e-05 1.6261295528750618e-02 0.0000000000000000e+00  -3.2512877302104088e-06 -1.9674413170976322e-02 0.0000000000000000e+00  -5.9088690070887078e-05 -1.6597766446206742e-02 0.0000000000000000e+00  1.9661224969424348e-02 -9.4616715989428384e-06 0.0000000000000000e+00  1.6325986509056450e-02 2.9258017971567926e-05 0.0000000000000000e+00  -3.7419145648555986e-06 1.6934116929567315e-02 0.0000000000000000e+00  -1.9029500233225818e-02 1.2267315121953988e-04 0.0000000000000000e+00  -3.0751690347646193e-05 -1.6916233932561007e-02 0.0000000000000000e+00  6.5814258494462208e-05 1.6892112940467139e-02 0.0000000000000000e+00  -5.4325481547088692e-06 -1.6647031479978119e-02 0.0000000000000000e+00  5.3767195993333298e-03 5.2069319369553559e-03 0.0000000000000000e+00  1.0108304200562553e-02 1.1813390690695069e-02 0.0000000000000000e+00  -1.3256591247647876e-03 6.7512006504975861e-03 0.0000000000000000e+00  7.6156985208233722e-04 -1.9269402355767594e-02 0.0000000000000000e+00  -1.9238485674443730e-02 -6.8141227188645503e-04 0.0000000000000000e+00  -1.0614159289223459e-05 1.9375684994486265e-02 0.0000000000000000e+00  7.7379469695190919e-06 -1.9412561908227443e-02 0.0000000000000000e+00  0.0000000000000000e+00 0.0000000000000000e+00 0.0000000000000000e+00  0.0000000000000000e+00 0.0000000000000000e+00 0.0000000000000000e+00  8.9110003812865012e-04 -1.6589551979195295e-02 0.0000000000000000e+00  -1.6692638735536190e-02 -5.1927227897901544e-04 0.0000000000000000e+00  -6.3024203134661397e-03 -1.6118283488937603e-03 0.0000000000000000e+00  1.0491778953360550e-02 -1.3456637670270683e-02 0.0000000000000000e+00  -1.6586319757441594e-02 -8.2803934209063207e-03 0.0000000000000000e+00  1.6670492193048021e-02 5.0260545191711315e-04 0.0000000000000000e+00  9.3981289958715194e-05 1.6450955622712225e-02 0.0000000000000000e+00  1.6536513974773584e-03 -6.2441744887340713e-03 0.0000000000000000e+00  0.0000000000000000e+00 0.0000000000000000e+00 0.0000000000000000e+00  1.7087152699299186e-02 -2.8413896231090243e-04 0.0000000000000000e+00  -2.1664621208786951e-03 -1.9450011021216868e-02 0.0000000000000000e+00  0.0000000000000000e+00 0.0000000000000000e+00 0.0000000000000000e+00  6.8685971579445719e-05 -1.6947913389107391e-02 0.0000000000000000e+00  0.0000000000000000e+00 0.0000000000000000e+00 0.0000000000000000e+00  8.8264388204572513e-05 1.7341377469121708e-02 0.0000000000000000e+00  -1.7401681820373556e-02 -1.3897007320385680e-04 0.0000000000000000e+00  0.0000000000000000e+00 0.0000000000000000e+00 0.0000000000000000e+00  0.0000000000000000e+00 0.0000000000000000e+00 0.0000000000000000e+00  0.0000000000000000e+00 0.0000000000000000e+00 0.0000000000000000e+00  1.1032281910539308e-05 -1.9622826241665302e-02 0.0000000000000000e+00  -3.5877319239911181e-05 1.9581921931144948e-02 0.0000000000000000e+00  1.9655111260608947e-02 4.4458973609712789e-06 0.0000000000000000e+00  1.9333533084802970e-02 -3.0790555611471399e-04 0.0000000000000000e+00  -1.9573511510526147e-02 -1.9119777883469438e-05 0.0000000000000000e+00  1.5004848842200650e-05 -1.9589130892506527e-02 0.0000000000000000e+00  2.0696005751557420e-05 1.9522144701030811e-02 0.0000000000000000e+00  -1.9665244774845610e-02 3.6890606869816933e-06 0.0000000000000000e+00  1.6541031065938131e-02 1.2835083191506629e-06 0.0000000000000000e+00  0.0000000000000000e+00 0.0000000000000000e+00 0.0000000000000000e+00  0.0000000000000000e+00 0.0000000000000000e+00 0.0000000000000000e+00  4.0398611578105792e-04 -1.7351277752915874e-02 0.0000000000000000e+00  -8.8389110987634187e-05 1.7318791863071351e-02 0.0000000000000000e+00  0.0000000000000000e+00 0.0000000000000000e+00 0.0000000000000000e+00  -1.8855268721933251e-02 2.6570997490653082e-04 0.0000000000000000e+00  0.0000000000000000e+00 0.0000000000000000e+00 0.0000000000000000e+00  0.0000000000000000e+00 0.0000000000000000e+00 0.0000000000000000e+00  1.8958260457302378e-02 4.8776420867161571e-05 0.0000000000000000e+00  -1.8826417458704434e-02 -2.3608192182837625e-05 0.0000000000000000e+00  0.0000000000000000e+00 0.0000000000000000e+00 0.0000000000000000e+00  0.0000000000000000e+00 0.0000000000000000e+00 0.0000000000000000e+00  -9.1276314789089565e-03 -1.4195865000595465e-02 0.0000000000000000e+00  -1.3190507047543915e-05 -1.9375668890923462e-02 0.0000000000000000e+00  -1.9451267764168490e-02 6.6230162901955266e-05 0.0000000000000000e+00  1.9556040041003371e-02 1.9452081272194154e-06 0.0000000000000000e+00  1.5873574219934136e-05 1.9654712421797622e-02 0.0000000000000000e+00  -1.7320787884999769e-02 -8.8828722258819535e-05 0.0000000000000000e+00  1.2038202089084171e-04 1.7080405668481433e-02 0.0000000000000000e+00  -8.1033736761515062e-06 1.7040766343801753e-02 0.0000000000000000e+00  5.5214795910793276e-05 -1.7010954293622257e-02 0.0000000000000000e+00  2.0316963442002179e-05 -1.9453255063688481e-02 0.0000000000000000e+00  0.0000000000000000e+00 0.0000000000000000e+00 0.0000000000000000e+00  3.8993796842079998e-06 -1.9398583975101864e-02 0.0000000000000000e+00  -1.0016356601428415e-02 2.0573986274224883e-03 0.0000000000000000e+00  -1.5161607345936537e-02 1.0193654480500280e-02 0.0000000000000000e+00  1.7544488538576951e-02 8.2030001329728777e-03 0.0000000000000000e+00  -1.4432643812830133e-03 -1.8436250009045130e-02 0.0000000000000000e+00  5.4187929201144182e-03 1.1718448355192668e-04 0.0000000000000000e+00  -1.7540577202604615e-02 -1.8513477572523285e-04 0.0000000000000000e+00  5.6853517544040482e-06 -1.7554935629900521e-02 0.0000000000000000e+00  -1.9535834859410600e-04 1.7530362928319051e-02 0.0000000000000000e+00  1.7339425727014936e-02 2.1369037954627185e-05 0.0000000000000000e+00  1.7288529120024345e-02 -2.3334492377755757e-06 0.0000000000000000e+00  1.6241288201066163e-04 1.9343361723440044e-02 0.0000000000000000e+00  1.7315125271192503e-02 3.2546155041564745e-04 0.0000000000000000e+00  2.7801539186774036e-05 -1.9636481095675541e-02 0.0000000000000000e+00  1.7835463628582155e-05 1.9646365113765857e-02 0.0000000000000000e+00  1.9533234863061549e-02 2.6360473177081259e-05 0.0000000000000000e+00  -1.9634884135200665e-02 3.7697870046140197e-05 0.0000000000000000e+00  -1.6847166569520698e-02 1.3537321964748772e-04 0.0000000000000000e+00  -1.5707406104638970e-04 -1.9324347706650719e-02 0.0000000000000000e+00  -1.5591276436339140e-04 -1.6707926971325511e-02 0.0000000000000000e+00  -1.9301826282747001e-02 3.9617090806278555e-04 0.0000000000000000e+00  1.9662543519946271e-02 1.5552073357796921e-05 0.0000000000000000e+00  5.0768684043211328e-06 1.9592752657959314e-02 0.0000000000000000e+00  1.9316128815348242e-02 3.2583986145351288e-04 0.0000000000000000e+00  -2.2546273879064144e-03 1.2035393511506528e-02 0.0000000000000000e+00  0.0000000000000000e+00 0.0000000000000000e+00 0.0000000000000000e+00  0.0000000000000000e+00 0.0000000000000000e+00 0.0000000000000000e+00  0.0000000000000000e+00 0.0000000000000000e+00 0.0000000000000000e+00  -7.2274263844600266e-06 1.9665383870408507e-02 0.0000000000000000e+00  1.8747660356958675e-05 1.9563493296001572e-02 0.0000000000000000e+00  2.2035176544489434e-05 -1.9592851032464671e-02 0.0000000000000000e+00  -1.9472951899874236e-02 -9.6425756796201206e-06 0.0000000000000000e+00  0.0000000000000000e+00 0.0000000000000000e+00 0.0000000000000000e+00  -5.2738317508538647e-06 -1.9632073633415934e-02 0.0000000000000000e+00  0.0000000000000000e+00 0.0000000000000000e+00 0.0000000000000000e+00  -1.6838649366397639e-02 -2.3764905345043645e-05 0.0000000000000000e+00  -3.5233744588858702e-05 -1.9566047336012686e-02 0.0000000000000000e+00  -1.6036721168481379e-03 1.7991910600127614e-02 0.0000000000000000e+00  -2.7336476858606483e-03 1.9149848908233701e-02 0.0000000000000000e+00  -1.9633591802167519e-02 3.0685138841837383e-0