<?xml version="1.0"?>
<VTKFile type="UnstructuredGrid"  version="0.1"  >
<UnstructuredGrid>
<Piece  NumberOfPoints="778" NumberOfCells="1401">
<Points>
<DataArray  type="Float64"  NumberOfComponents="3"  format="ascii">1 -1 0  6 -1 0  6 1 0  1 1 0  1 6 0  -1 6 0  -1 1 0  -6 1 0  -6 -1 0  -1 -1 0  -1 -6 0  1 -6 0  1 3.5 0  -1 3.5 0  -1 -3.5 0  1 -3.5 0  3.5 -1 0  3.5 1 0  -3.5 -1 0  -3.5 1 0  -1 -2.25 0  1 -2.25 0  2.25 -1 0  2.25 1 0  -1 2.25 0  1 2.25 0  -1 4.75 0  1 4.75 0  -4.75 -1 0  -4.75 1 0  -2.25 1 0  -2.25 -1 0  1 -4.75 0  -1 -4.75 0  4.75 1 0  4.75 -1 0  0 0 0  -2.875 0 0  -1.625 0 0  -4.125 0 0  -6 0 0  0 2.875 0  2.875 0 0  0 6 0  1.625 0 0  0 -2.875 0  0 -1.625 0  0 1.625 0  0 4.125 0  0 -6 0  0 -4.125 0  4.125 0 0  6 0 0  -0.109375 5.0625 0  -5.0625 -0.109375 0  -0.109375 -5.0625 0  5.0625 0.109375 0  0.8125 -0.1875 0  -0.1875 -0.8125 0  -0.8125 0.1875 0  -0.1875 0.8125 0  1 5.375 0  -5.375 1 0  1 -5.375 0  5.375 -1 0  0.53515625 0.46484375 0  -5.375 -1 0  -1 5.375 0  -1 -5.375 0  -0.5 -6 0  5.375 1 0  6 0.5 0  3.5 0.3046875 0  3.43125 -0.34765625 0  2.875 -1 0  4.125 1 0  0.3046875 3.5 0  -0.34765625 3.56875 0  -1 4.125 0  1 4.125 0  -0.3046875 2.25 0  0.34765625 2.18125 0  1 1.625 0  -1 -1.625 0  -0.3046875 -3.5 0  0.34765625 -3.56875 0  1 -4.125 0  0.3046875 -2.25 0  -0.34765625 -2.18125 0  -1 -4.125 0  -1 -2.875 0  1 -2.875 0  1 -1.625 0  1.625 -1 0  1.625 1 0  2.25 0.3046875 0  2.18125 -0.34765625 0  4.125 -1 0  2.875 1 0  1 2.875 0  -1 1.625 0  -1 2.875 0  -4.125 -1 0  -2.25 0.3046875 0  -2.31875 -0.34765625 0  -2.875 -1 0  -1.625 1 0  -4.125 1 0  -3.5 0.3046875 0  -3.56875 -0.34765625 0  -1.625 -1 0  -2.875 1 0  0.380626321794301 1.06853329530276 0  -1.110819327731092 -0.3739495798319328 0  0.3739495798319328 -1.110819327731092 0  1.151210293219304 0.3991939332620648 0  -0.5 -4.4375 0  0.5 -4.4375 0  5.481553398058253 -0.3712833737864077 0  0.5 4.4375 0  0.5 6 0  -0.522503783594538 -0.3265648647465863 0  -1.3125 0.5 0  -0.5 6 0  0.3265648647465863 -0.522503783594538 0  4.4375 0.5 0  4.4375 -0.5 0  0.5 -6 0  -6 -0.5 0  -5.481553398058253 0.3712833737864077 0  -4.55 -0.4296875 0  -4.4375 0.5 0  -0.5 4.4375 0  0.4792930825242718 5.026881067961165 0  0.4792930825242718 -5.026881067961165 0  -0.5 1.3125 0  1.3125 -0.5 0  -0.5 -1.3125 0  0.25 5.518539952962044 0  0.2125133872612723 -5.500076563152851 0  4.969341874373811 -0.5152550785163683 0  -4.969341874373811 0.5152550785163683 0  3.927189744345589 -0.4712876597840069 0  -5.554036458333333 -0.25 0  5.554036458333333 0.25 0  -0.4690710616438356 -5.462756849315069 0  -0.4690710616438356 5.462756849315069 0  -6 0.5 0  -1.59556436210848 -0.5 0  -3.058421751829955 -0.5 0  -0.5 2.731982421875 0  0.5 2.691578248170045 0  2.691578248170045 -0.5 0  1.641211254104555 0.5 0  0.5 -1.768017578125 0  0.5 -3.058421751829955 0  0.5 1.699267578125 0  3.018017578125 0.5 0  -0.5 -3.018017578125 0  -2.731982421875 0.5 0  6 -0.5 0  -4.050017120925308 -0.5006099332648871 0  -3.940668202764977 0.5371363767281105 0  3.940668202764977 0.5371363767281105 0  0.4517449476047904 3.958458083832335 0  -0.4517449476047904 -3.958458083832335 0  -1.809331797235023 0.5371363767281105 0  -0.4517449476047904 1.791541916167665 0  -0.0546875 4.59375 0  -5.006445312499999 -0.58984375 0  4.605643203883496 -0.04725424757281554 0  4.90625 0.5546875 0  -0.5546875 4.90625 0  0.04725424757281554 -4.605643203883496 0  -0.586116118210531 -4.995821561900013 0  -4.603710222472543 0.04846236095466061 0  -3.1875 0.65234375 0  0.6163907621110913 3.147502300973589 0  2.5625 0.65234375 0  0.6163907621110913 -2.602497699026411 0  -0.637456713551384 3.189259902731882 0  -0.637456713551384 -2.560740097268118 0  -0.34765625 0.34765625 0  -0.639453125 0.708203125 0  0.089630126953125 0.437286376953125 0  -0.4238281249999999 -1.746875 0  1.746875 -0.4238281249999999 0  -0.4238281249999999 4.003125 0  0.4238281249999999 -4.003125 0  -2.5625 -1 0  3.1875 -1 0  -0.09375 -1.21875 0  1.21875 -0.09375 0  0.4020305405760241 -0.1120343241705621 0  -0.6280191027904287 -0.7577505545748082 0  0.90625 -0.59375 0  -1.205500904741459 0.03633725387965409 0  -0.02129048848213058 1.202028574265107 0  -0.1120343241705621 -0.4020305405760241 0  1 1.3125 0  -2.003587563743074 -0.6442361556699288 0  0.6640077663259718 -1.395873598614549 0  5.6875 -1 0  0.6308138580859101 -5.592151086468728 0  -5.6875 -1 0  0.6568032075915271 5.612942566073222 0  5.616530031741774 0.6612875396772174 0  -5.6875 1 0  1.9375 1 0  -1.3125 -1 0  0.1524679547155687 -3.232579139388032 0  0.1524679547155687 2.517420860611968 0  -3.232579139388032 -0.1524679547155687 0  -1.932320553757026 -0.252759244693845 0  2.517420860611968 -0.1524679547155687 0  -0.04776045819569434 -2.464949198504599 0  -0.2420369079104247 3.187693796852321 0  3.751304711039982 -0.1203080877045035 0  -5.397601941771943 -0.609026059866711 0  1.3125 1 0  1.9375 -1 0  -0.6946315101963667 -2.018229242739021 0  -0.6946315101963667 3.731770757260979 0  1 -3.8125 0  2.014364435550335 0.6166648446293641 0  -1 5.6875 0  -1 -5.6875 0  -2.653476149871182 -0.5942957192996303 0  3.096523850128818 -0.5942957192996303 0  1 1.9375 0  -3.8125 -1 0  0.586975531244212 -0.7975955463807081 0  -0.2946248980953088 -4.743710873809568 0  2.625453376770019 0.2814788818359375 0  -3.124546623229981 0.2814788818359375 0  -0.1204856417894853 5.631800603217465 0  5.253862011026742 0.6581468962876398 0  -0.65234375 2.108701557941197 0  0.65234375 3.641298442058803 0  -0.65234375 -3.641298442058803 0  -0.25 -5.744880569758637 0  -4.4375 -1 0  -0.3166212631734941 -2.713595940002554 0  0.6591479224207506 0.1324305912687024 0  0.8660781906552419 0.6468634238104103 0  -0.9887189158197679 0.6452930723873549 0  0.3149351927204296 -1.460971774996065 0  -0.3572852727880474 -0.009629022788047503 0  2.09375 -0.6866724363772454 0  0.6866724363772454 -3.65625 0  0.6866724363772454 2.09375 0  -3.65625 -0.6866724363772454 0  -3.5371337890625 0.65234375 0  -0.1389584113023952 1.944025352615082 0  -2.151744288472698 0.65234375 0  -0.1389584113023951 -3.805974647384918 0  0.1389584113023951 3.805974647384918 0  -2.578772109813904 0.1857224367977529 0  3.171227890186096 0.1857224367977529 0  3.360315647536819 0.65234375 0  0.1857224367977528 -1.921227890186096 0  0.65234375 -2.110315647536819 0  1.894016528727564 0.2415406141485869 0  -3.738232421875 0 0  0.2516875549238616 3.139069895099618 0  -1.913724396854074 0.2011142179916434 0  0.1669456568161915 0.7843410671359501 0  -2.5625 1 0  -1 -3.1875 0  -1 2.5625 0  0.1736601499778735 4.857955663330752 0  -0.1893536587212888 2.577300639071919 0  -0.1893536587212888 -3.172699360928081 0  3.852271904453858 0.206603749322895 0  -3.8125 1 0  -0.1250095034621793 -5.421707592768541 0  3.8125 -1 0  3.617304217264373 -0.6578427703661498 0  0.2630176195580202 -2.636558318495885 0  0.2674330357770522 1.399517071108871 0  0.631726413079416 1.339254523727593 0  4.700571879807737 0.2813704945051134 0  0.7143844363649634 -3.319538455208831 0  2.430461544791169 -0.7143844363649634 0  0.7143844363649634 2.430461544791169 0  -3.319538455208831 -0.7143844363649634 0  5.687045771608623 -0.6520598572553891 0  -5.687045771608623 0.6520598572553891 0  -1.15625 -0.7048248829733235 0  3.438284572973296 -0.01860298867862281 0  -0.03021088078697859 3.451572359862192 0  2.216682837011589 -0.02159585961918548 0  -2.191580885932936 -0.03126387444658879 0  0.1857410764408683 1.895679405349457 0  3.103473238297955 -0.253270943723272 0  -2.646526761702045 -0.253270943723272 0  -2.333137350671861 -0.6791984914172315 0  -1 5.0625 0  -0.6971235589909319 5.213002544375844 0  0.01618705363819947 2.225929180591695 0  0.01618705363819947 -3.524070819408305 0  0.5690054882403073 0.7951310720450595 0  -0.5764940424412852 -3.329579265180942 0  -0.5764940424412852 2.420420734819058 0  3.8125 1 0  -5.372163860234628 0.04365139563106807 0  5.164108319316826 -0.225040894204947 0  -5.361952437854323 0.6744012088984681 0  -5.0625 1 0  5.286835586913878 -0.6616705837083201 0  -5.692815197359722 0.1186699900166531 0  5.663425996156958 -0.07763197815533956 0  -0.9219866027132193 -0.1143045829323572 0  -1.394333629759332 -0.2233077430199216 0  0.09322478991596644 -0.9616596638655462 0  5.0625 -1 0  -0.14412109375 -1.92169189453125 0  -4.28125 -0.7212148987671345 0  0.2649796277366407 0.1735162902120744 0  -4.907855692236596 0.1868230509619793 0  -1.9375 1 0  1 5.0625 0  0.6915124486819284 -5.272938212550202 0  0.683483242673902 5.284948082526911 0  2.5625 -1 0  -1 -3.8125 0  -1 1.9375 0  5.0625 1 0  -1 -1.9375 0  1 5.6875 0  1 -5.6875 0  -1.9375 -1 0  -1 -2.5625 0  -1 3.1875 0  1 -3.1875 0  1 -2.5625 0  1 2.5625 0  1 3.1875 0  -5.0625 -1 0  -1 -1.3125 0  1.3125 -1 0  -1 1.3125 0  -1 3.8125 0  -1 4.4375 0  -4.4375 1 0  4.4375 -1 0  4.4375 1 0  -1.3125 1 0  1 4.4375 0  1 -4.4375 0  -1 -5.0625 0  -1 -4.4375 0  -3.1875 1 0  2.5625 1 0  1 -1.9375 0  1 -1.3125 0  5.6875 1 0  1 3.8125 0  3.1875 1 0  -3.1875 -1 0  1 -5.0625 0  1.35138038998199 0.6675097549271188 0  -0.465625 0.986328125 0  1.435958105992309 0.2563920171199723 0  1.915914614192913 -0.145782394639918 0  -0.8764440609469509 -0.5746869313612541 0  5.355194559946098 0.01566259380337612 0  -5.69333042954964 -0.5242868300459975 0  1.78125 -0.7320750794491524 0  0.7320750794491525 -3.96875 0  -0.3959075548864684 5.166422468926435 0  -4.770522389068053 -0.2123670725088856 0  -4.714160156249999 -0.69234375 0  -4.273484403713342 -0.278160994327167 0  0.9642590244517505 0.08196089404241463 0  0.3500261717645397 -4.727285205957206 0  0.6740868006020392 -4.765147848348443 0  0.6797550207247084 -1.089747806381148 0  -5.186479934354063 0.3046329157552757 0  -5.263288238215326 -0.3369092276308425 0  -2.433484016245305 0.5442571297016638 0  0.1707808983307866 -3.82363304980935 0  -0.1554012991031027 3.867535742674252 0  4.855508096805579 -0.2283975605264581 0  3.644517238097614 0.5646428152488787 0  0.05699603874439441 -0.6452791208413911 0  -0.3550018917972689 -0.5695324323732931 0  0.6
[...]
<PointData  Vectors="u"> 
<DataArray  type="Float64"  Name="u"  NumberOfComponents="3" format="ascii">0.0000000000000000e+00 0.0000000000000000e+00 0.0000000000000000e+00  0.0000000000000000e+00 0.0000000000000000e+00 0.0000000000000000e+00  0.0000000000000000e+00 0.0000000000000000e+00 0.0000000000000000e+00  0.0000000000000000e+00 0.0000000000000000e+00 0.0000000000000000e+00  0.0000000000000000e+00 0.0000000000000000e+00 0.0000000000000000e+00  0.0000000000000000e+00 0.0000000000000000e+00 0.0000000000000000e+00  0.0000000000000000e+00 0.0000000000000000e+00 0.0000000000000000e+00  0.0000000000000000e+00 0.0000000000000000e+00 0.0000000000000000e+00  0.0000000000000000e+00 0.0000000000000000e+00 0.0000000000000000e+00  0.0000000000000000e+00 0.0000000000000000e+00 0.0000000000000000e+00  0.0000000000000000e+00 0.0000000000000000e+00 0.0000000000000000e+00  0.0000000000000000e+00 0.0000000000000000e+00 0.0000000000000000e+00  0.0000000000000000e+00 0.0000000000000000e+00 0.0000000000000000e+00  0.0000000000000000e+00 0.0000000000000000e+00 0.0000000000000000e+00  0.0000000000000000e+00 0.0000000000000000e+00 0.0000000000000000e+00  0.0000000000000000e+00 0.0000000000000000e+00 0.0000000000000000e+00  0.0000000000000000e+00 0.0000000000000000e+00 0.0000000000000000e+00  0.0000000000000000e+00 0.0000000000000000e+00 0.0000000000000000e+00  0.0000000000000000e+00 0.0000000000000000e+00 0.0000000000000000e+00  0.0000000000000000e+00 0.0000000000000000e+00 0.0000000000000000e+00  0.0000000000000000e+00 0.0000000000000000e+00 0.0000000000000000e+00  0.0000000000000000e+00 0.0000000000000000e+00 0.0000000000000000e+00  0.0000000000000000e+00 0.0000000000000000e+00 0.0000000000000000e+00  0.0000000000000000e+00 0.0000000000000000e+00 0.0000000000000000e+00  0.0000000000000000e+00 0.0000000000000000e+00 0.0000000000000000e+00  0.0000000000000000e+00 0.0000000000000000e+00 0.0000000000000000e+00  0.0000000000000000e+00 0.0000000000000000e+00 0.0000000000000000e+00  0.0000000000000000e+00 0.0000000000000000e+00 0.0000000000000000e+00  0.0000000000000000e+00 0.0000000000000000e+00 0.0000000000000000e+00  0.0000000000000000e+00 0.0000000000000000e+00 0.0000000000000000e+00  0.0000000000000000e+00 0.0000000000000000e+00 0.0000000000000000e+00  0.0000000000000000e+00 0.0000000000000000e+00 0.0000000000000000e+00  0.0000000000000000e+00 0.0000000000000000e+00 0.0000000000000000e+00  0.0000000000000000e+00 0.0000000000000000e+00 0.0000000000000000e+00  0.0000000000000000e+00 0.0000000000000000e+00 0.0000000000000000e+00  0.0000000000000000e+00 0.0000000000000000e+00 0.0000000000000000e+00  -2.0269174392005049e-04 9.8902048998093176e-05 0.0000000000000000e+00  5.0100858964995540e-02 -1.1427740297951790e-05 0.0000000000000000e+00  4.7845483601260341e-02 6.5097944593640249e-05 0.0000000000000000e+00  5.0159019634145111e-02 3.5530962852083183e-06 0.0000000000000000e+00  5.0209259697696462e-02 3.5745644555637614e-05 0.0000000000000000e+00  1.2274597659086751e-05 5.0085541713208101e-02 0.0000000000000000e+00  -5.0012218911678952e-02 4.3732926451925858e-05 0.0000000000000000e+00  3.8297374046232887e-05 5.0027031551068017e-02 0.0000000000000000e+00  -4.7942143286797620e-02 1.1783496224365319e-04 0.0000000000000000e+00  7.3282630785197978e-06 -5.0054339684629225e-02 0.0000000000000000e+00  -1.7465219622847841e-05 -4.7755406271234292e-02 0.0000000000000000e+00  4.1001769559845626e-05 4.7698559823154081e-02 0.0000000000000000e+00  3.6552544926316871e-05 5.0048363860889893e-02 0.0000000000000000e+00  3.9758909136186189e-05 -5.0044746477832115e-02 0.0000000000000000e+00  6.5519922529120458e-05 -5.0111628609540562e-02 0.0000000000000000e+00  -5.0169352939320087e-02 -1.7016846482326864e-05 0.0000000000000000e+00  -5.0131233781416450e-02 -4.5867977913633846e-05 0.0000000000000000e+00  -6.1704987934023886e-05 5.0170131518606456e-02 0.0000000000000000e+00  5.0107549774392801e-02 -6.4211090527955411e-05 0.0000000000000000e+00  -7.7921138427633154e-05 -4.9907706608686847e-02 0.0000000000000000e+00  -5.0024378357222871e-02 -6.0696843791944244e-05 0.0000000000000000e+00  -3.2433654385474339e-02 -6.7368203923094481e-03 0.0000000000000000e+00  6.5032471959840191e-03 -3.1946847611864025e-02 0.0000000000000000e+00  3.1846265049093977e-02 6.6545612659089839e-03 0.0000000000000000e+00  6.7330616458457209e-03 3.1999469831364653e-02 0.0000000000000000e+00  0.0000000000000000e+00 0.0000000000000000e+00 0.0000000000000000e+00  0.0000000000000000e+00 0.0000000000000000e+00 0.0000000000000000e+00  0.0000000000000000e+00 0.0000000000000000e+00 0.0000000000000000e+00  0.0000000000000000e+00 0.0000000000000000e+00 0.0000000000000000e+00  -2.2357473115220735e-02 1.8839688123483550e-02 0.0000000000000000e+00  0.0000000000000000e+00 0.0000000000000000e+00 0.0000000000000000e+00  0.0000000000000000e+00 0.0000000000000000e+00 0.0000000000000000e+00  0.0000000000000000e+00 0.0000000000000000e+00 0.0000000000000000e+00  6.0985608563148448e-05 -4.7759755469302799e-02 0.0000000000000000e+00  0.0000000000000000e+00 0.0000000000000000e+00 0.0000000000000000e+00  -4.9920793109105091e-02 -4.9088361957001496e-07 0.0000000000000000e+00  -5.0169591050178167e-02 6.0803544155889355e-05 0.0000000000000000e+00  -5.0051176367257796e-02 1.4732874883479299e-05 0.0000000000000000e+00  0.0000000000000000e+00 0.0000000000000000e+00 0.0000000000000000e+00  0.0000000000000000e+00 0.0000000000000000e+00 0.0000000000000000e+00  2.7974190880441390e-05 5.0038680711636661e-02 0.0000000000000000e+00  -5.3244955689283596e-06 5.0134199617575349e-02 0.0000000000000000e+00  0.0000000000000000e+00 0.0000000000000000e+00 0.0000000000000000e+00  0.0000000000000000e+00 0.0000000000000000e+00 0.0000000000000000e+00  2.4101517647374414e-04 4.9800996687604265e-02 0.0000000000000000e+00  -3.6372502260888727e-04 4.9888242783690938e-02 0.0000000000000000e+00  0.0000000000000000e+00 0.0000000000000000e+00 0.0000000000000000e+00  0.0000000000000000e+00 0.0000000000000000e+00 0.0000000000000000e+00  4.5580988401259487e-05 -5.0013512169174990e-02 0.0000000000000000e+00  1.6255740123164351e-05 -5.0078624155860736e-02 0.0000000000000000e+00  0.0000000000000000e+00 0.0000000000000000e+00 0.0000000000000000e+00  -2.1683345068964746e-04 -4.9868415241221209e-02 0.0000000000000000e+00  4.4898434585172772e-04 -4.9920608810405914e-02 0.0000000000000000e+00  0.0000000000000000e+00 0.0000000000000000e+00 0.0000000000000000e+00  0.0000000000000000e+00 0.0000000000000000e+00 0.0000000000000000e+00  0.0000000000000000e+00 0.0000000000000000e+00 0.0000000000000000e+00  0.0000000000000000e+00 0.0000000000000000e+00 0.0000000000000000e+00  0.0000000000000000e+00 0.0000000000000000e+00 0.0000000000000000e+00  0.0000000000000000e+00 0.0000000000000000e+00 0.0000000000000000e+00  -4.9781172170290627e-02 3.2706049763424377e-04 0.0000000000000000e+00  -4.9847842644203284e-02 -3.2592288091999648e-04 0.0000000000000000e+00  0.0000000000000000e+00 0.0000000000000000e+00 0.0000000000000000e+00  0.0000000000000000e+00 0.0000000000000000e+00 0.0000000000000000e+00  0.0000000000000000e+00 0.0000000000000000e+00 0.0000000000000000e+00  0.0000000000000000e+00 0.0000000000000000e+00 0.0000000000000000e+00  0.0000000000000000e+00 0.0000000000000000e+00 0.0000000000000000e+00  0.0000000000000000e+00 0.0000000000000000e+00 0.0000000000000000e+00  4.9906830000738790e-02 3.4510835550422719e-04 0.0000000000000000e+00  4.9994757539846162e-02 -2.9937833303642926e-04 0.0000000000000000e+00  0.0000000000000000e+00 0.0000000000000000e+00 0.0000000000000000e+00  0.0000000000000000e+00 0.0000000000000000e+00 0.0000000000000000e+00  0.0000000000000000e+00 0.0000000000000000e+00 0.0000000000000000e+00  4.9886114789751225e-02 8.5024216394428897e-05 0.0000000000000000e+00  5.0115118939410938e-02 2.3555551944569358e-05 0.0000000000000000e+00  0.0000000000000000e+00 0.0000000000000000e+00 0.0000000000000000e+00  0.0000000000000000e+00 0.0000000000000000e+00 0.0000000000000000e+00  -9.3107229751741710e-03 4.2211399929291571e-02 0.0000000000000000e+00  4.3451783146188722e-02 -9.1388982468249020e-03 0.0000000000000000e+00  -8.6797948779082836e-03 -4.3874522338068461e-02 0.0000000000000000e+00  -4.4397867262305435e-02 8.1979460080564212e-03 0.0000000000000000e+00  4.1342716253672222e-05 -4.7647669581191536e-02 0.0000000000000000e+00  -2.1172458160325540e-06 -5.0113168256420731e-02 0.0000000000000000e+00  -5.0113191659128510e-02 -6.7063239752605455e-05 0.0000000000000000e+00  3.1289589148851052e-06 5.0023585539790270e-02 0.0000000000000000e+00  4.7143167111683160e-05 4.9975579335392262e-02 0.0000000000000000e+00  2.1175038058096295e-02 -1.3235535630773346e-02 0.0000000000000000e+00  4.8296021160040628e-02 6.7923191756130820e-03 0.0000000000000000e+00  2.8283660801905050e-05 4.7746475112449241e-02 0.0000000000000000e+00  -1.2701371744282389e-02 -2.1121922118647302e-02 0.0000000000000000e+00  -4.9960358151396760e-02 -2.6218536202113732e-05 0.0000000000000000e+00  -5.0143816841182701e-02 8.1863243580107865e-06 0.0000000000000000e+00  3.2928952740302694e-05 -4.9961676082078431e-02 0.0000000000000000e+00  5.0218761330599847e-02 1.0641619784359457e-06 0.0000000000000000e+00  5.0023265141440822e-02 5.2837152181681084e-05 0.0000000000000000e+00  5.0200232349795676e-02 6.2752922661603514e-06 0.0000000000000000e+00  4.7461896411314243e-02 -1.5033152838158907e-05 0.0000000000000000e+00  2.2784976968680116e-05 4.9853423589475095e-02 0.0000000000000000e+00  -3.6792891268763724e-05 5.0143958065669618e-02 0.0000000000000000e+00  -2.8895504625907216e-05 -5.0066644494837935e-02 0.0000000000000000e+00  7.3314191132524279e-03 4.9645640652439912e-02 0.0000000000000000e+00  -4.8817755020432771e-02 -6.8380802474526494e-03 0.0000000000000000e+00  6.7888393635926053e-03 -4.8347055344704688e-02 0.0000000000000000e+00  3.2595068841082231e-05 5.0033679605654566e-02 0.0000000000000000e+00  -2.4112072114649181e-05 -5.0139690277316198e-02 0.0000000000000000e+00  -5.0194970353491269e-02 -6.1852791722871633e-05 0.0000000000000000e+00  4.7953542534838640e-02 5.6342736019146735e-06 0.0000000000000000e+00  -5.0040180944874002e-02 -2.7017440666464438e-05 0.0000000000000000e+00  5.0095155299337155e-02 -6.2288633757270591e-05 0.0000000000000000e+00  -5.0080787370002759e-02 -1.3449249800270209e-04 0.0000000000000000e+00  3.9197509330592236e-06 -4.9941916896861407e-02 0.0000000000000000e+00  1.3204529042169186e-05 4.9976787568359493e-02 0.0000000000000000e+00  4.8500262767360865e-02 1.1437687005643868e-04 0.0000000000000000e+00  4.9839582220538088e-02 -2.6348390876303092e-03 0.0000000000000000e+00  5.0123399223208263e-02 1.3089471083011849e-05 0.0000000000000000e+00  -1.7163402496772949e-06 5.0067260492109369e-02 0.0000000000000000e+00  -9.2098845365106067e-05 4.9943824881031648e-02 0.0000000000000000e+00  -5.0054640565259413e-02 -2.5375777328229515e-05 0.0000000000000000e+00  -4.9920018073963249e-02 2.6105676842261478e-03 0.0000000000000000e+00  -1.5749885124032299e-03 -4.9737341341695725e-02 0.0000000000000000e+00  -7.6743960076252426e-06 -4.9994867870505062e-02 0.0000000000000000e+00  -1.8107749501339561e-03 5.0078389020650413e-02 0.0000000000000000e+00  -4.9965675368345383e-02 9.8702206301543453e-05 0.0000000000000000e+00  9.4432263903470833e-05 -4.9985246845917368e-02 0.0000000000000000e+00  5.0056538421042983e-02 3.2126614488121933e-06 0.0000000000000000e+00  -4.8343038164560231e-02 -4.4934418907764563e-05 0.0000000000000000e+00  5.0123233018187809e-02 -4.2170109931662150e-06 0.0000000000000000e+00  4.8071542818066575e-02 -1.7346702108250956e-04 0.0000000000000000e+00  -4.8064350008706201e-02 -3.7027049017049606e-04 0.0000000000000000e+00  3.1006820589519567e-05 5.0019646719872482e-02 0.0000000000000000e+00  7.8251011983008424e-05 -5.0016750421147720e-02 0.0000000000000000e+00  4.7822771954736817e-02 1.3705548921723587e-03 0.0000000000000000e+00  1.4626629196642722e-03 4.9445124109942763e-02 0.0000000000000000e+00  5.5122746492883470e-05 5.0082658094320533e-02 0.0000000000000000e+00  4.8511485886819972e-02 6.8716905166711493e-05 0.0000000000000000e+00  -5.0149410045479299e-02 -8.3012077734106394e-06 0.0000000000000000e+00  -4.5056643814287117e-02 8.0369701211901670e-05 0.0000000000000000e+00  6.2515921949497737e-05 4.4020355116444289e-02 0.0000000000000000e+00  -1.1656022784098025e-05 -5.0171782107090265e-02 0.0000000000000000e+00  -1.9129623068041130e-04 -4.4646139008635975e-02 0.0000000000000000e+00  5.0177786054397294e-02 -3.5183019936287706e-05 0.0000000000000000e+00  4.4627838441058006e-02 1.0492282638185667e-04 0.0000000000000000e+00  3.0230340076172633e-05 4.5467622365512023e-02 0.0000000000000000e+00  -4.9238935431353478e-02 2.7658763217945322e-04 0.0000000000000000e+00  -1.6115988740025562e-04 -4.5400209516388658e-02 0.0000000000000000e+00  2.1216508668067156e-04 4.5875777825227296e-02 0.0000000000000000e+00  -7.7981101090547904e-05 -4.5922694634105053e-02 0.0000000000000000e+00  1.3946390268710789e-02 1.3716843564106100e-02 0.0000000000000000e+00  2.6597463310518564e-02 3.0674055295375598e-02 0.0000000000000000e+00  -3.5796008749467262e-03 1.7488155623663591e-02 0.0000000000000000e+00  1.7605092543774353e-03 -4.9482362908517048e-02 0.0000000000000000e+00  -4.9338834027731551e-02 -1.5905866068217530e-03 0.0000000000000000e+00  -2.3166021971218625e-05 4.9936801050885000e-02 0.0000000000000000e+00  5.9874682277974571e-09 -5.0026629342929375e-02 0.0000000000000000e+00  0.0000000000000000e+00 0.0000000000000000e+00 0.0000000000000000e+00  0.0000000000000000e+00 0.0000000000000000e+00 0.0000000000000000e+00  2.2152760152259576e-03 -4.2875056554817478e-02 0.0000000000000000e+00  -4.2886822839806327e-02 -1.4954213386516018e-03 0.0000000000000000e+00  -1.6289334873688072e-02 -4.2502505926865887e-03 0.0000000000000000e+00  2.6611160783061468e-02 -3.4769333271033577e-02 0.0000000000000000e+00  -4.3262905964055950e-02 -2.0528646991209189e-02 0.0000000000000000e+00  4.2721241722118601e-02 1.0928065260479073e-03 0.0000000000000000e+00  4.0298087105031298e-04 4.2322333310347009e-02 0.0000000000000000e+00  4.3671996231359070e-03 -1.6128299678511277e-02 0.0000000000000000e+00  0.0000000000000000e+00 0.0000000000000000e+00 0.0000000000000000e+00  4.6157623731084556e-02 -7.1959477906329808e-04 0.0000000000000000e+00  -4.2473836395054672e-03 -4.9949283713340682e-02 0.0000000000000000e+00  0.0000000000000000e+00 0.0000000000000000e+00 0.0000000000000000e+00  1.9619913155987574e-04 -4.6071251569764451e-02 0.0000000000000000e+00  0.0000000000000000e+00 0.0000000000000000e+00 0.0000000000000000e+00  2.6512912509700374e-04 4.6708335597794456e-02 0.0000000000000000e+00  -4.6862111745274375e-02 -4.0223474209859515e-04 0.0000000000000000e+00  0.0000000000000000e+00 0.0000000000000000e+00 0.0000000000000000e+00  0.0000000000000000e+00 0.0000000000000000e+00 0.0000000000000000e+00  0.0000000000000000e+00 0.0000000000000000e+00 0.0000000000000000e+00  3.2072492219373815e-05 -5.0070609513229440e-02 0.0000000000000000e+00  -7.4584182516793389e-05 4.9986457433801403e-02 0.0000000000000000e+00  5.0116813701256223e-02 1.3712889923176675e-05 0.0000000000000000e+00  4.9501484035159686e-02 -7.0904482694405320e-04 0.0000000000000000e+00  -4.9942865262224453e-02 -3.9404577986472496e-05 0.0000000000000000e+00  3.3625866203892241e-05 -5.0002418576916056e-02 0.0000000000000000e+00  6.9063431463913059e-05 5.0077568031116140e-02 0.0000000000000000e+00  -5.0185236942079388e-02 8.2262050214522694e-06 0.0000000000000000e+00  4.5322024163613431e-02 2.9479842609499932e-06 0.0000000000000000e+00  0.0000000000000000e+00 0.0000000000000000e+00 0.0000000000000000e+00  0.0000000000000000e+00 0.0000000000000000e+00 0.0000000000000000e+00  9.3252477801607464e-04 -4.7048618418653376e-02 0.0000000000000000e+00  -2.5782114861017845e-04 4.7166702062923900e-02 0.0000000000000000e+00  0.0000000000000000e+00 0.0000000000000000e+00 0.0000000000000000e+00  -4.8791421881645515e-02 5.7852567505096183e-04 0.0000000000000000e+00  0.0000000000000000e+00 0.0000000000000000e+00 0.0000000000000000e+00  0.0000000000000000e+00 0.0000000000000000e+00 0.0000000000000000e+00  4.8717464344427065e-02 1.7730665496672109e-04 0.0000000000000000e+00  -4.8359124123803415e-02 -5.2067001298627799e-05 0.0000000000000000e+00  0.0000000000000000e+00 0.0000000000000000e+00 0.0000000000000000e+00  0.0000000000000000e+00 0.0000000000000000e+00 0.0000000000000000e+00  -2.3427410167701130e-02 -3.6842979587617501e-02 0.0000000000000000e+00  -7.2634754108728339e-05 -5.0073371432894115e-02 0.0000000000000000e+00  -4.9918414144952086e-02 1.1679909138639661e-04 0.0000000000000000e+00  5.0052094395848228e-02 -8.5031553177343748e-06 0.0000000000000000e+00  4.4489545037050134e-05 5.0104515737414985e-02 0.0000000000000000e+00  -4.7163740696136387e-02 -2.1338914195985815e-04 0.0000000000000000e+00  2.5553497464749896e-04 4.6836804134179386e-02 0.0000000000000000e+00  -9.4282001439572382e-05 4.6114019604556529e-02 0.0000000000000000e+00  1.5668536036617150e-04 -4.6503193076337351e-02 0.0000000000000000e+00  5.8635812445136195e-05 -4.9972626971790071e-02 0.0000000000000000e+00  0.0000000000000000e+00 0.0000000000000000e+00 0.0000000000000000e+00  5.6986262026109868e-06 -4.9971204804048326e-02 0.0000000000000000e+00  -2.6156260423132335e-02 5.1456579346899666e-03 0.0000000000000000e+00  -3.9146696341473060e-02 2.6203394121383918e-02 0.0000000000000000e+00  4.5511750770141648e-02 2.1032541764072602e-02 0.0000000000000000e+00  -3.3505905988754836e-03 -4.7294121521272318e-02 0.0000000000000000e+00  1.4161482225647427e-02 -4.1818050480032994e-05 0.0000000000000000e+00  -4.7280295319344350e-02 -4.1782769839052885e-04 0.0000000000000000e+00  1.6801119581875334e-05 -4.7131146080896684e-02 0.0000000000000000e+00  -4.4012722272350837e-04 4.7250730776096511e-02 0.0000000000000000e+00  4.6847258884074962e-02 8.4227097035005944e-05 0.0000000000000000e+00  4.7252136317244384e-02 6.5358502686698304e-05 0.0000000000000000e+00  3.8943594569624304e-04 4.9428533283680819e-02 0.0000000000000000e+00  4.7656884119850883e-02 7.1621218760674072e-04 0.0000000000000000e+00  5.5363281697066096e-05 -5.0088912424900982e-02 0.0000000000000000e+00  4.0624787174399959e-05 5.0100805631600895e-02 0.0000000000000000e+00  4.9976449257146387e-02 3.0872446230994252e-05 0.0000000000000000e+00  -5.0046844272859957e-02 9.4504987336516353e-05 0.0000000000000000e+00  -4.6356310135330175e-02 4.1347929935552400e-04 0.0000000000000000e+00  -3.8359559811372546e-04 -4.9338612428935918e-02 0.0000000000000000e+00  -3.0303510451252006e-04 -4.5958478546217194e-02 0.0000000000000000e+00  -4.9379925514084960e-02 8.7389561642631100e-04 0.0000000000000000e+00  5.0142796155068434e-02 3.4614864918743476e-05 0.0000000000000000e+00  2.0067634800717301e-05 5.0101862559854500e-02 0.0000000000000000e+00  4.9371448270844769e-02 7.3144464528568842e-04 0.0000000000000000e+00  -5.9512376694080635e-03 3.1100117397327376e-02 0.0000000000000000e+00  0.0000000000000000e+00 0.0000000000000000e+00 0.0000000000000000e+00  0.0000000000000000e+00 0.0000000000000000e+00 0.0000000000000000e+00  0.0000000000000000e+00 0.0000000000000000e+00 0.0000000000000000e+00  -1.3198528164456879e-05 5.0115384218164111e-02 0.0000000000000000e+00  4.1527199074697228e-05 4.9939992537976804e-02 0.0000000000000000e+00  5.2902637367759478e-05 -4.9982739245688641e-02 0.0000000000000000e+00  -5.0010283428047045e-02 1.2542747582732228e-05 0.0000000000000000e+00  0.0000000000000000e+00 0.0000000000000000e+00 0.0000000000000000e+00  -2.2568172678479037e-05 -5.0070994260098096e-02 0.0000000000000000e+00  0.0000000000000000e+00 0.0000000000000000e+00 0.0000000000000000e+00  -4.5849864869419388e-02 -2.5970723966717129e-05 0.0000000000000000e+00  -7.6026578538454211e-05 -5.0027278986743196e-02 0.0000000000000000e+00  -3.7037956190574947e-03 4.6334375397506608e-02 0.0000000000000000e+00  -5.6128605432957564e-03 4.8803415824572753e-02 0.0000000000000000e+00  -5.0207225104250360e-02 6.7047746106466798e-06 0