<?xml version="1.0"?>
<VTKFile type="UnstructuredGrid"  version="0.1"  >
<UnstructuredGrid>
<Piece  NumberOfPoints="778" NumberOfCells="1401">
<Points>
<DataArray  type="Float64"  NumberOfComponents="3"  format="ascii">1 -1 0  6 -1 0  6 1 0  1 1 0  1 6 0  -1 6 0  -1 1 0  -6 1 0  -6 -1 0  -1 -1 0  -1 -6 0  1 -6 0  1 3.5 0  -1 3.5 0  -1 -3.5 0  1 -3.5 0  3.5 -1 0  3.5 1 0  -3.5 -1 0  -3.5 1 0  -1 -2.25 0  1 -2.25 0  2.25 -1 0  2.25 1 0  -1 2.25 0  1 2.25 0  -1 4.75 0  1 4.75 0  -4.75 -1 0  -4.75 1 0  -2.25 1 0  -2.25 -1 0  1 -4.75 0  -1 -4.75 0  4.75 1 0  4.75 -1 0  0 0 0  -2.875 0 0  -1.625 0 0  -4.125 0 0  -6 0 0  0 2.875 0  2.875 0 0  0 6 0  1.625 0 0  0 -2.875 0  0 -1.625 0  0 1.625 0  0 4.125 0  0 -6 0  0 -4.125 0  4.125 0 0  6 0 0  -0.109375 5.0625 0  -5.0625 -0.109375 0  -0.109375 -5.0625 0  5.0625 0.109375 0  0.8125 -0.1875 0  -0.1875 -0.8125 0  -0.8125 0.1875 0  -0.1875 0.8125 0  1 5.375 0  -5.375 1 0  1 -5.375 0  5.375 -1 0  0.53515625 0.46484375 0  -5.375 -1 0  -1 5.375 0  -1 -5.375 0  -0.5 -6 0  5.375 1 0  6 0.5 0  3.5 0.3046875 0  3.43125 -0.34765625 0  2.875 -1 0  4.125 1 0  0.3046875 3.5 0  -0.34765625 3.56875 0  -1 4.125 0  1 4.125 0  -0.3046875 2.25 0  0.34765625 2.18125 0  1 1.625 0  -1 -1.625 0  -0.3046875 -3.5 0  0.34765625 -3.56875 0  1 -4.125 0  0.3046875 -2.25 0  -0.34765625 -2.18125 0  -1 -4.125 0  -1 -2.875 0  1 -2.875 0  1 -1.625 0  1.625 -1 0  1.625 1 0  2.25 0.3046875 0  2.18125 -0.34765625 0  4.125 -1 0  2.875 1 0  1 2.875 0  -1 1.625 0  -1 2.875 0  -4.125 -1 0  -2.25 0.3046875 0  -2.31875 -0.34765625 0  -2.875 -1 0  -1.625 1 0  -4.125 1 0  -3.5 0.3046875 0  -3.56875 -0.34765625 0  -1.625 -1 0  -2.875 1 0  0.380626321794301 1.06853329530276 0  -1.110819327731092 -0.3739495798319328 0  0.3739495798319328 -1.110819327731092 0  1.151210293219304 0.3991939332620648 0  -0.5 -4.4375 0  0.5 -4.4375 0  5.481553398058253 -0.3712833737864077 0  0.5 4.4375 0  0.5 6 0  -0.522503783594538 -0.3265648647465863 0  -1.3125 0.5 0  -0.5 6 0  0.3265648647465863 -0.522503783594538 0  4.4375 0.5 0  4.4375 -0.5 0  0.5 -6 0  -6 -0.5 0  -5.481553398058253 0.3712833737864077 0  -4.55 -0.4296875 0  -4.4375 0.5 0  -0.5 4.4375 0  0.4792930825242718 5.026881067961165 0  0.4792930825242718 -5.026881067961165 0  -0.5 1.3125 0  1.3125 -0.5 0  -0.5 -1.3125 0  0.25 5.518539952962044 0  0.2125133872612723 -5.500076563152851 0  4.969341874373811 -0.5152550785163683 0  -4.969341874373811 0.5152550785163683 0  3.927189744345589 -0.4712876597840069 0  -5.554036458333333 -0.25 0  5.554036458333333 0.25 0  -0.4690710616438356 -5.462756849315069 0  -0.4690710616438356 5.462756849315069 0  -6 0.5 0  -1.59556436210848 -0.5 0  -3.058421751829955 -0.5 0  -0.5 2.731982421875 0  0.5 2.691578248170045 0  2.691578248170045 -0.5 0  1.641211254104555 0.5 0  0.5 -1.768017578125 0  0.5 -3.058421751829955 0  0.5 1.699267578125 0  3.018017578125 0.5 0  -0.5 -3.018017578125 0  -2.731982421875 0.5 0  6 -0.5 0  -4.050017120925308 -0.5006099332648871 0  -3.940668202764977 0.5371363767281105 0  3.940668202764977 0.5371363767281105 0  0.4517449476047904 3.958458083832335 0  -0.4517449476047904 -3.958458083832335 0  -1.809331797235023 0.5371363767281105 0  -0.4517449476047904 1.791541916167665 0  -0.0546875 4.59375 0  -5.006445312499999 -0.58984375 0  4.605643203883496 -0.04725424757281554 0  4.90625 0.5546875 0  -0.5546875 4.90625 0  0.04725424757281554 -4.605643203883496 0  -0.586116118210531 -4.995821561900013 0  -4.603710222472543 0.04846236095466061 0  -3.1875 0.65234375 0  0.6163907621110913 3.147502300973589 0  2.5625 0.65234375 0  0.6163907621110913 -2.602497699026411 0  -0.637456713551384 3.189259902731882 0  -0.637456713551384 -2.560740097268118 0  -0.34765625 0.34765625 0  -0.639453125 0.708203125 0  0.089630126953125 0.437286376953125 0  -0.4238281249999999 -1.746875 0  1.746875 -0.4238281249999999 0  -0.4238281249999999 4.003125 0  0.4238281249999999 -4.003125 0  -2.5625 -1 0  3.1875 -1 0  -0.09375 -1.21875 0  1.21875 -0.09375 0  0.4020305405760241 -0.1120343241705621 0  -0.6280191027904287 -0.7577505545748082 0  0.90625 -0.59375 0  -1.205500904741459 0.03633725387965409 0  -0.02129048848213058 1.202028574265107 0  -0.1120343241705621 -0.4020305405760241 0  1 1.3125 0  -2.003587563743074 -0.6442361556699288 0  0.6640077663259718 -1.395873598614549 0  5.6875 -1 0  0.6308138580859101 -5.592151086468728 0  -5.6875 -1 0  0.6568032075915271 5.612942566073222 0  5.616530031741774 0.6612875396772174 0  -5.6875 1 0  1.9375 1 0  -1.3125 -1 0  0.1524679547155687 -3.232579139388032 0  0.1524679547155687 2.517420860611968 0  -3.232579139388032 -0.1524679547155687 0  -1.932320553757026 -0.252759244693845 0  2.517420860611968 -0.1524679547155687 0  -0.04776045819569434 -2.464949198504599 0  -0.2420369079104247 3.187693796852321 0  3.751304711039982 -0.1203080877045035 0  -5.397601941771943 -0.609026059866711 0  1.3125 1 0  1.9375 -1 0  -0.6946315101963667 -2.018229242739021 0  -0.6946315101963667 3.731770757260979 0  1 -3.8125 0  2.014364435550335 0.6166648446293641 0  -1 5.6875 0  -1 -5.6875 0  -2.653476149871182 -0.5942957192996303 0  3.096523850128818 -0.5942957192996303 0  1 1.9375 0  -3.8125 -1 0  0.586975531244212 -0.7975955463807081 0  -0.2946248980953088 -4.743710873809568 0  2.625453376770019 0.2814788818359375 0  -3.124546623229981 0.2814788818359375 0  -0.1204856417894853 5.631800603217465 0  5.253862011026742 0.6581468962876398 0  -0.65234375 2.108701557941197 0  0.65234375 3.641298442058803 0  -0.65234375 -3.641298442058803 0  -0.25 -5.744880569758637 0  -4.4375 -1 0  -0.3166212631734941 -2.713595940002554 0  0.6591479224207506 0.1324305912687024 0  0.8660781906552419 0.6468634238104103 0  -0.9887189158197679 0.6452930723873549 0  0.3149351927204296 -1.460971774996065 0  -0.3572852727880474 -0.009629022788047503 0  2.09375 -0.6866724363772454 0  0.6866724363772454 -3.65625 0  0.6866724363772454 2.09375 0  -3.65625 -0.6866724363772454 0  -3.5371337890625 0.65234375 0  -0.1389584113023952 1.944025352615082 0  -2.151744288472698 0.65234375 0  -0.1389584113023951 -3.805974647384918 0  0.1389584113023951 3.805974647384918 0  -2.578772109813904 0.1857224367977529 0  3.171227890186096 0.1857224367977529 0  3.360315647536819 0.65234375 0  0.1857224367977528 -1.921227890186096 0  0.65234375 -2.110315647536819 0  1.894016528727564 0.2415406141485869 0  -3.738232421875 0 0  0.2516875549238616 3.139069895099618 0  -1.913724396854074 0.2011142179916434 0  0.1669456568161915 0.7843410671359501 0  -2.5625 1 0  -1 -3.1875 0  -1 2.5625 0  0.1736601499778735 4.857955663330752 0  -0.1893536587212888 2.577300639071919 0  -0.1893536587212888 -3.172699360928081 0  3.852271904453858 0.206603749322895 0  -3.8125 1 0  -0.1250095034621793 -5.421707592768541 0  3.8125 -1 0  3.617304217264373 -0.6578427703661498 0  0.2630176195580202 -2.636558318495885 0  0.2674330357770522 1.399517071108871 0  0.631726413079416 1.339254523727593 0  4.700571879807737 0.2813704945051134 0  0.7143844363649634 -3.319538455208831 0  2.430461544791169 -0.7143844363649634 0  0.7143844363649634 2.430461544791169 0  -3.319538455208831 -0.7143844363649634 0  5.687045771608623 -0.6520598572553891 0  -5.687045771608623 0.6520598572553891 0  -1.15625 -0.7048248829733235 0  3.438284572973296 -0.01860298867862281 0  -0.03021088078697859 3.451572359862192 0  2.216682837011589 -0.02159585961918548 0  -2.191580885932936 -0.03126387444658879 0  0.1857410764408683 1.895679405349457 0  3.103473238297955 -0.253270943723272 0  -2.646526761702045 -0.253270943723272 0  -2.333137350671861 -0.6791984914172315 0  -1 5.0625 0  -0.6971235589909319 5.213002544375844 0  0.01618705363819947 2.225929180591695 0  0.01618705363819947 -3.524070819408305 0  0.5690054882403073 0.7951310720450595 0  -0.5764940424412852 -3.329579265180942 0  -0.5764940424412852 2.420420734819058 0  3.8125 1 0  -5.372163860234628 0.04365139563106807 0  5.164108319316826 -0.225040894204947 0  -5.361952437854323 0.6744012088984681 0  -5.0625 1 0  5.286835586913878 -0.6616705837083201 0  -5.692815197359722 0.1186699900166531 0  5.663425996156958 -0.07763197815533956 0  -0.9219866027132193 -0.1143045829323572 0  -1.394333629759332 -0.2233077430199216 0  0.09322478991596644 -0.9616596638655462 0  5.0625 -1 0  -0.14412109375 -1.92169189453125 0  -4.28125 -0.7212148987671345 0  0.2649796277366407 0.1735162902120744 0  -4.907855692236596 0.1868230509619793 0  -1.9375 1 0  1 5.0625 0  0.6915124486819284 -5.272938212550202 0  0.683483242673902 5.284948082526911 0  2.5625 -1 0  -1 -3.8125 0  -1 1.9375 0  5.0625 1 0  -1 -1.9375 0  1 5.6875 0  1 -5.6875 0  -1.9375 -1 0  -1 -2.5625 0  -1 3.1875 0  1 -3.1875 0  1 -2.5625 0  1 2.5625 0  1 3.1875 0  -5.0625 -1 0  -1 -1.3125 0  1.3125 -1 0  -1 1.3125 0  -1 3.8125 0  -1 4.4375 0  -4.4375 1 0  4.4375 -1 0  4.4375 1 0  -1.3125 1 0  1 4.4375 0  1 -4.4375 0  -1 -5.0625 0  -1 -4.4375 0  -3.1875 1 0  2.5625 1 0  1 -1.9375 0  1 -1.3125 0  5.6875 1 0  1 3.8125 0  3.1875 1 0  -3.1875 -1 0  1 -5.0625 0  1.35138038998199 0.6675097549271188 0  -0.465625 0.986328125 0  1.435958105992309 0.2563920171199723 0  1.915914614192913 -0.145782394639918 0  -0.8764440609469509 -0.5746869313612541 0  5.355194559946098 0.01566259380337612 0  -5.69333042954964 -0.5242868300459975 0  1.78125 -0.7320750794491524 0  0.7320750794491525 -3.96875 0  -0.3959075548864684 5.166422468926435 0  -4.770522389068053 -0.2123670725088856 0  -4.714160156249999 -0.69234375 0  -4.273484403713342 -0.278160994327167 0  0.9642590244517505 0.08196089404241463 0  0.3500261717645397 -4.727285205957206 0  0.6740868006020392 -4.765147848348443 0  0.6797550207247084 -1.089747806381148 0  -5.186479934354063 0.3046329157552757 0  -5.263288238215326 -0.3369092276308425 0  -2.433484016245305 0.5442571297016638 0  0.1707808983307866 -3.82363304980935 0  -0.1554012991031027 3.867535742674252 0  4.855508096805579 -0.2283975605264581 0  3.644517238097614 0.5646428152488787 0  0.05699603874439441 -0.6452791208413911 0  -0.3550018917972689 -0.5695324323732931 0  0.6
[...]
<PointData  Vectors="u"> 
<DataArray  type="Float64"  Name="u"  NumberOfComponents="3" format="ascii">0.0000000000000000e+00 0.0000000000000000e+00 0.0000000000000000e+00  0.0000000000000000e+00 0.0000000000000000e+00 0.0000000000000000e+00  0.0000000000000000e+00 0.0000000000000000e+00 0.0000000000000000e+00  0.0000000000000000e+00 0.0000000000000000e+00 0.0000000000000000e+00  0.0000000000000000e+00 0.0000000000000000e+00 0.0000000000000000e+00  0.0000000000000000e+00 0.0000000000000000e+00 0.0000000000000000e+00  0.0000000000000000e+00 0.0000000000000000e+00 0.0000000000000000e+00  0.0000000000000000e+00 0.0000000000000000e+00 0.0000000000000000e+00  0.0000000000000000e+00 0.0000000000000000e+00 0.0000000000000000e+00  0.0000000000000000e+00 0.0000000000000000e+00 0.0000000000000000e+00  0.0000000000000000e+00 0.0000000000000000e+00 0.0000000000000000e+00  0.0000000000000000e+00 0.0000000000000000e+00 0.0000000000000000e+00  0.0000000000000000e+00 0.0000000000000000e+00 0.0000000000000000e+00  0.0000000000000000e+00 0.0000000000000000e+00 0.0000000000000000e+00  0.0000000000000000e+00 0.0000000000000000e+00 0.0000000000000000e+00  0.0000000000000000e+00 0.0000000000000000e+00 0.0000000000000000e+00  0.0000000000000000e+00 0.0000000000000000e+00 0.0000000000000000e+00  0.0000000000000000e+00 0.0000000000000000e+00 0.0000000000000000e+00  0.0000000000000000e+00 0.0000000000000000e+00 0.0000000000000000e+00  0.0000000000000000e+00 0.0000000000000000e+00 0.0000000000000000e+00  0.0000000000000000e+00 0.0000000000000000e+00 0.0000000000000000e+00  0.0000000000000000e+00 0.0000000000000000e+00 0.0000000000000000e+00  0.0000000000000000e+00 0.0000000000000000e+00 0.0000000000000000e+00  0.0000000000000000e+00 0.0000000000000000e+00 0.0000000000000000e+00  0.0000000000000000e+00 0.0000000000000000e+00 0.0000000000000000e+00  0.0000000000000000e+00 0.0000000000000000e+00 0.0000000000000000e+00  0.0000000000000000e+00 0.0000000000000000e+00 0.0000000000000000e+00  0.0000000000000000e+00 0.0000000000000000e+00 0.0000000000000000e+00  0.0000000000000000e+00 0.0000000000000000e+00 0.0000000000000000e+00  0.0000000000000000e+00 0.0000000000000000e+00 0.0000000000000000e+00  0.0000000000000000e+00 0.0000000000000000e+00 0.0000000000000000e+00  0.0000000000000000e+00 0.0000000000000000e+00 0.0000000000000000e+00  0.0000000000000000e+00 0.0000000000000000e+00 0.0000000000000000e+00  0.0000000000000000e+00 0.0000000000000000e+00 0.0000000000000000e+00  0.0000000000000000e+00 0.0000000000000000e+00 0.0000000000000000e+00  0.0000000000000000e+00 0.0000000000000000e+00 0.0000000000000000e+00  -1.4753225447937859e-04 5.0464936146834717e-05 0.0000000000000000e+00  2.6003713678004064e-02 -7.1233639414555663e-06 0.0000000000000000e+00  2.4753016564232296e-02 6.1328342134354071e-05 0.0000000000000000e+00  2.6021781409798501e-02 5.4646408897399719e-07 0.0000000000000000e+00  2.6047665266239858e-02 2.1885201772668131e-05 0.0000000000000000e+00  6.2990681090898276e-06 2.5969863730916341e-02 0.0000000000000000e+00  -2.5944008280726578e-02 2.8399594442409952e-05 0.0000000000000000e+00  2.2923791446687447e-05 2.5966324427037769e-02 0.0000000000000000e+00  -2.4805039300427927e-02 8.1883570674688212e-05 0.0000000000000000e+00  7.4074561271021899e-06 -2.5967498504132991e-02 0.0000000000000000e+00  -2.7769673690198501e-05 -2.4629085167333940e-02 0.0000000000000000e+00  2.6017903637526678e-05 2.4616592626065758e-02 0.0000000000000000e+00  2.5377395986169827e-05 2.5974183354580929e-02 0.0000000000000000e+00  2.4708903359354570e-05 -2.5969441940367658e-02 0.0000000000000000e+00  3.6027301727328695e-05 -2.6008773278653780e-02 0.0000000000000000e+00  -2.6033523696820233e-02 -5.6894695363979402e-06 0.0000000000000000e+00  -2.5997081431349638e-02 -2.4959625362537432e-05 0.0000000000000000e+00  -2.8887479931020584e-05 2.6037746432175234e-02 0.0000000000000000e+00  2.5974780600357409e-02 -2.5944066712631016e-05 0.0000000000000000e+00  -3.9706090011785964e-05 -2.5823712669535332e-02 0.0000000000000000e+00  -2.5905664276981086e-02 -2.9469418932184792e-05 0.0000000000000000e+00  -1.6730548436765896e-02 -3.5468845679141525e-03 0.0000000000000000e+00  3.2916226846519594e-03 -1.6359449031108583e-02 0.0000000000000000e+00  1.6302527216466987e-02 3.5510764972433669e-03 0.0000000000000000e+00  3.5028093585612969e-03 1.6382595051218782e-02 0.0000000000000000e+00  0.0000000000000000e+00 0.0000000000000000e+00 0.0000000000000000e+00  0.0000000000000000e+00 0.0000000000000000e+00 0.0000000000000000e+00  0.0000000000000000e+00 0.0000000000000000e+00 0.0000000000000000e+00  0.0000000000000000e+00 0.0000000000000000e+00 0.0000000000000000e+00  -1.1553203562546105e-02 9.6367796008419056e-03 0.0000000000000000e+00  0.0000000000000000e+00 0.0000000000000000e+00 0.0000000000000000e+00  0.0000000000000000e+00 0.0000000000000000e+00 0.0000000000000000e+00  0.0000000000000000e+00 0.0000000000000000e+00 0.0000000000000000e+00  4.7030301117595507e-05 -2.4794325365358087e-02 0.0000000000000000e+00  0.0000000000000000e+00 0.0000000000000000e+00 0.0000000000000000e+00  -2.5923917151865497e-02 -3.0693150465906574e-06 0.0000000000000000e+00  -2.5807012502241378e-02 4.1359941055340039e-05 0.0000000000000000e+00  -2.5733937429358131e-02 -4.9712260863549457e-06 0.0000000000000000e+00  0.0000000000000000e+00 0.0000000000000000e+00 0.0000000000000000e+00  0.0000000000000000e+00 0.0000000000000000e+00 0.0000000000000000e+00  1.2356825901830871e-05 2.5905600799105068e-02 0.0000000000000000e+00  -8.3404465174480701e-06 2.5909649732830591e-02 0.0000000000000000e+00  0.0000000000000000e+00 0.0000000000000000e+00 0.0000000000000000e+00  0.0000000000000000e+00 0.0000000000000000e+00 0.0000000000000000e+00  1.2654802876805904e-04 2.5676336444120530e-02 0.0000000000000000e+00  -2.1060253559909397e-04 2.5818954872827531e-02 0.0000000000000000e+00  0.0000000000000000e+00 0.0000000000000000e+00 0.0000000000000000e+00  0.0000000000000000e+00 0.0000000000000000e+00 0.0000000000000000e+00  4.0751454128808455e-05 -2.5812328315838063e-02 0.0000000000000000e+00  8.9601328925244407e-06 -2.5933744525645879e-02 0.0000000000000000e+00  0.0000000000000000e+00 0.0000000000000000e+00 0.0000000000000000e+00  -1.1910623332766639e-04 -2.5864667046452940e-02 0.0000000000000000e+00  2.5484411744184260e-04 -2.5771689066643660e-02 0.0000000000000000e+00  0.0000000000000000e+00 0.0000000000000000e+00 0.0000000000000000e+00  0.0000000000000000e+00 0.0000000000000000e+00 0.0000000000000000e+00  0.0000000000000000e+00 0.0000000000000000e+00 0.0000000000000000e+00  0.0000000000000000e+00 0.0000000000000000e+00 0.0000000000000000e+00  0.0000000000000000e+00 0.0000000000000000e+00 0.0000000000000000e+00  0.0000000000000000e+00 0.0000000000000000e+00 0.0000000000000000e+00  -2.5604163553253283e-02 2.0001824113830653e-04 0.0000000000000000e+00  -2.5801189584771348e-02 -1.7968097631450918e-04 0.0000000000000000e+00  0.0000000000000000e+00 0.0000000000000000e+00 0.0000000000000000e+00  0.0000000000000000e+00 0.0000000000000000e+00 0.0000000000000000e+00  0.0000000000000000e+00 0.0000000000000000e+00 0.0000000000000000e+00  0.0000000000000000e+00 0.0000000000000000e+00 0.0000000000000000e+00  0.0000000000000000e+00 0.0000000000000000e+00 0.0000000000000000e+00  0.0000000000000000e+00 0.0000000000000000e+00 0.0000000000000000e+00  2.5616286556960868e-02 2.2551486755916151e-04 0.0000000000000000e+00  2.5697231174028692e-02 -1.5216361033804248e-04 0.0000000000000000e+00  0.0000000000000000e+00 0.0000000000000000e+00 0.0000000000000000e+00  0.0000000000000000e+00 0.0000000000000000e+00 0.0000000000000000e+00  0.0000000000000000e+00 0.0000000000000000e+00 0.0000000000000000e+00  2.5649978742956516e-02 4.2657848553608274e-05 0.0000000000000000e+00  2.5956767504779214e-02 1.2176613652203079e-05 0.0000000000000000e+00  0.0000000000000000e+00 0.0000000000000000e+00 0.0000000000000000e+00  0.0000000000000000e+00 0.0000000000000000e+00 0.0000000000000000e+00  -4.8105813217392468e-03 2.1580786068479532e-02 0.0000000000000000e+00  2.2264935994309669e-02 -4.8715641950973871e-03 0.0000000000000000e+00  -4.4723743762689686e-03 -2.2537868003773987e-02 0.0000000000000000e+00  -2.2778180278121615e-02 4.3081006617970890e-03 0.0000000000000000e+00  3.5594662351948067e-05 -2.4637171290959825e-02 0.0000000000000000e+00  -5.9271644795592308e-06 -2.5906321264029745e-02 0.0000000000000000e+00  -2.5792690711987677e-02 -2.9249363691868706e-05 0.0000000000000000e+00  -3.4872673481608404e-07 2.5864728244466638e-02 0.0000000000000000e+00  4.7236508699991330e-05 2.5732331312918136e-02 0.0000000000000000e+00  1.0905074361684721e-02 -6.8273252239017101e-03 0.0000000000000000e+00  2.4784951694917873e-02 3.5512530225103576e-03 0.0000000000000000e+00  3.2712953021313526e-05 2.4764559899177651e-02 0.0000000000000000e+00  -6.4270025161148317e-03 -1.0788539564447003e-02 0.0000000000000000e+00  -2.5652491710465682e-02 1.7987801885648089e-05 0.0000000000000000e+00  -2.5924419091462311e-02 9.7549752229969941e-06 0.0000000000000000e+00  4.6902103911592553e-05 -2.5671273855264524e-02 0.0000000000000000e+00  2.5972007852157659e-02 9.8469240292821267e-06 0.0000000000000000e+00  2.5739518609083949e-02 3.3223969626865727e-05 0.0000000000000000e+00  2.5891618360801328e-02 5.6111693063305080e-06 0.0000000000000000e+00  2.4462923548377868e-02 -1.0456698934858550e-05 0.0000000000000000e+00  3.1950100901120376e-05 2.5690861548496206e-02 0.0000000000000000e+00  -3.1811335421415724e-05 2.5908930588499180e-02 0.0000000000000000e+00  -1.3664787098246184e-05 -2.5807772754892950e-02 0.0000000000000000e+00  4.0213233387610290e-03 2.5582953463808740e-02 0.0000000000000000e+00  -2.5048985815885424e-02 -3.7585214628393128e-03 0.0000000000000000e+00  3.5079234175714115e-03 -2.4826376430837939e-02 0.0000000000000000e+00  1.9099762608277445e-05 2.5912073790273504e-02 0.0000000000000000e+00  -1.1373904476756612e-05 -2.6028033670681443e-02 0.0000000000000000e+00  -2.5947013098576926e-02 -5.0260085482565169e-05 0.0000000000000000e+00  2.4577576669611800e-02 1.4335186048609223e-05 0.0000000000000000e+00  -2.5764592189046566e-02 -1.2923511166029434e-05 0.0000000000000000e+00  2.5818086535875279e-02 -1.1429510259574978e-05 0.0000000000000000e+00  -2.5930484008405360e-02 -6.9906212343747042e-05 0.0000000000000000e+00  7.9543752632680971e-06 -2.5765812411611730e-02 0.0000000000000000e+00  3.3376783777677922e-06 2.5745889763303088e-02 0.0000000000000000e+00  2.4996434894716580e-02 7.1279493513300721e-05 0.0000000000000000e+00  2.5714394377944066e-02 -1.4419444523161515e-03 0.0000000000000000e+00  2.5849973244179543e-02 -4.1677409289350871e-07 0.0000000000000000e+00  1.3661612266360565e-05 2.5807928127597263e-02 0.0000000000000000e+00  -6.2163755136302644e-05 2.5708853707562779e-02 0.0000000000000000e+00  -2.5805904658242930e-02 -9.2016533406591315e-06 0.0000000000000000e+00  -2.5754221570431883e-02 1.4642660663173488e-03 0.0000000000000000e+00  -9.5385654093104843e-04 -2.5728025928221179e-02 0.0000000000000000e+00  9.8761543085375494e-06 -2.5712607180502563e-02 0.0000000000000000e+00  -1.0578821671922227e-03 2.5918358395487479e-02 0.0000000000000000e+00  -2.5868028421845726e-02 6.7808235274996234e-05 0.0000000000000000e+00  3.8737755530288077e-05 -2.5778916421103221e-02 0.0000000000000000e+00  2.5719652358322173e-02 3.1868732172714856e-06 0.0000000000000000e+00  -2.4797774646895920e-02 -7.4922626296967110e-06 0.0000000000000000e+00  2.5920249237977550e-02 -3.5266402963735473e-06 0.0000000000000000e+00  2.4689098177313351e-02 -9.2537102789206561e-05 0.0000000000000000e+00  -2.4712220370562740e-02 -1.9247106354024099e-04 0.0000000000000000e+00  2.8867867862924791e-05 2.5757527717704672e-02 0.0000000000000000e+00  4.1970663073355987e-05 -2.5729871870133057e-02 0.0000000000000000e+00  2.4671425471483936e-02 7.6076980028570316e-04 0.0000000000000000e+00  8.3667643339833692e-04 2.5517572962613075e-02 0.0000000000000000e+00  3.2890517904879239e-05 2.5978782983619199e-02 0.0000000000000000e+00  2.4894746935731016e-02 4.8597020507118031e-06 0.0000000000000000e+00  -2.6018102431373029e-02 -6.3488720901190713e-06 0.0000000000000000e+00  -2.2541961377597768e-02 5.0119791596097495e-05 0.0000000000000000e+00  2.7936515669833584e-05 2.1785020044344541e-02 0.0000000000000000e+00  -4.6933948347623935e-06 -2.6026686324937199e-02 0.0000000000000000e+00  -8.3747677184125666e-05 -2.2203639212132371e-02 0.0000000000000000e+00  2.6016856354713128e-02 -1.4045204332898077e-05 0.0000000000000000e+00  2.1932735896541069e-02 4.1222570155742212e-05 0.0000000000000000e+00  1.0677902582030935e-06 2.2645464097926098e-02 0.0000000000000000e+00  -2.5249215218055992e-02 1.5948193850211204e-04 0.0000000000000000e+00  -4.9247927570614404e-05 -2.2621667792932693e-02 0.0000000000000000e+00  9.2335668980856269e-05 2.2668566553737880e-02 0.0000000000000000e+00  -1.5069965317267057e-05 -2.2427432404919012e-02 0.0000000000000000e+00  7.1350739299045072e-03 6.9347197052410693e-03 0.0000000000000000e+00  1.3462037341656276e-02 1.5676421638376251e-02 0.0000000000000000e+00  -1.7819906894486408e-03 8.9566419701629183e-03 0.0000000000000000e+00  9.9085467527676896e-04 -2.5527855293641516e-02 0.0000000000000000e+00  -2.5477825220013399e-02 -8.8550466021163694e-04 0.0000000000000000e+00  -1.3851491522680040e-05 2.5710502138102415e-02 0.0000000000000000e+00  7.7946041514630257e-06 -2.5759316293055789e-02 0.0000000000000000e+00  0.0000000000000000e+00 0.0000000000000000e+00 0.0000000000000000e+00  0.0000000000000000e+00 0.0000000000000000e+00 0.0000000000000000e+00  1.1753031733486286e-03 -2.2005887473861868e-02 0.0000000000000000e+00  -2.2112671501902628e-02 -7.1006258235178628e-04 0.0000000000000000e+00  -8.3567011139467420e-03 -2.1455482117583935e-03 0.0000000000000000e+00  1.3862164747858181e-02 -1.7856420643775222e-02 0.0000000000000000e+00  -2.2086255059755273e-02 -1.0877741239775886e-02 0.0000000000000000e+00  2.2072393259473327e-02 6.4262640899393516e-04 0.0000000000000000e+00  1.4906643195340910e-04 2.1792559868310909e-02 0.0000000000000000e+00  2.2052035462140564e-03 -8.2772520822127355e-03 0.0000000000000000e+00  0.0000000000000000e+00 0.0000000000000000e+00 0.0000000000000000e+00  2.2895862882819824e-02 -3.7614133315657923e-04 0.0000000000000000e+00  -2.7302409506608349e-03 -2.5739988759840626e-02 0.0000000000000000e+00  0.0000000000000000e+00 0.0000000000000000e+00 0.0000000000000000e+00  9.5419090466749003e-05 -2.2745125448634246e-02 0.0000000000000000e+00  0.0000000000000000e+00 0.0000000000000000e+00 0.0000000000000000e+00  1.2352033463085326e-04 2.3224484692396671e-02 0.0000000000000000e+00  -2.3309125625363903e-02 -1.9075261459791719e-04 0.0000000000000000e+00  0.0000000000000000e+00 0.0000000000000000e+00 0.0000000000000000e+00  0.0000000000000000e+00 0.0000000000000000e+00 0.0000000000000000e+00  0.0000000000000000e+00 0.0000000000000000e+00 0.0000000000000000e+00  1.5175079590361758e-05 -2.5963553879947320e-02 0.0000000000000000e+00  -4.5805716206741455e-05 2.5911233131069734e-02 0.0000000000000000e+00  2.6000711147140643e-02 6.3084527793482362e-06 0.0000000000000000e+00  2.5593924987176241e-02 -3.9917212201753821e-04 0.0000000000000000e+00  -2.5897415780604706e-02 -2.4045935042981598e-05 0.0000000000000000e+00  1.8963119051349014e-05 -2.5919194889018747e-02 0.0000000000000000e+00  2.9631189464652651e-05 2.5859515434620756e-02 0.0000000000000000e+00  -2.6021495747345788e-02 4.8757228521292861e-06 0.0000000000000000e+00  2.2230372263349465e-02 9.8174873702457786e-07 0.0000000000000000e+00  0.0000000000000000e+00 0.0000000000000000e+00 0.0000000000000000e+00  0.0000000000000000e+00 0.0000000000000000e+00 0.0000000000000000e+00  5.2645631671727547e-04 -2.3291625724336108e-02 0.0000000000000000e+00  -1.2144843737067586e-04 2.3273257095280966e-02 0.0000000000000000e+00  0.0000000000000000e+00 0.0000000000000000e+00 0.0000000000000000e+00  -2.5020140707882704e-02 3.4107989453022994e-04 0.0000000000000000e+00  0.0000000000000000e+00 0.0000000000000000e+00 0.0000000000000000e+00  0.0000000000000000e+00 0.0000000000000000e+00 0.0000000000000000e+00  2.5109807384847818e-02 7.1919627707432189e-05 0.0000000000000000e+00  -2.4926981487568944e-02 -3.1424026765027331e-05 0.0000000000000000e+00  0.0000000000000000e+00 0.0000000000000000e+00 0.0000000000000000e+00  0.0000000000000000e+00 0.0000000000000000e+00 0.0000000000000000e+00  -1.2088781063384549e-02 -1.8862787804616352e-02 0.0000000000000000e+00  -2.2118785925691908e-05 -2.5719904813936621e-02 0.0000000000000000e+00  -2.5772300155259300e-02 8.1661320158923003e-05 0.0000000000000000e+00  2.5890637740047025e-02 1.4248402035969428e-06 0.0000000000000000e+00  2.1610613856552728e-05 2.5998033226637390e-02 0.0000000000000000e+00  -2.3268725644077028e-02 -1.1759576919894453e-04 0.0000000000000000e+00  1.5082850596497157e-04 2.2991587791436011e-02 0.0000000000000000e+00  -1.7459252141176333e-05 2.2846319577186948e-02 0.0000000000000000e+00  7.4501014071963969e-05 -2.2868761215459305e-02 0.0000000000000000e+00  2.7840107358703397e-05 -2.5780672153710646e-02 0.0000000000000000e+00  0.0000000000000000e+00 0.0000000000000000e+00 0.0000000000000000e+00  4.2175222747200830e-06 -2.5725648351502099e-02 0.0000000000000000e+00  -1.3319686731045749e-02 2.7098617659073588e-03 0.0000000000000000e+00  -2.0105398115244394e-02 1.3524531305655953e-02 0.0000000000000000e+00  2.3282934929805450e-02 1.0888962338682463e-02 0.0000000000000000e+00  -1.8735258165451356e-03 -2.4408021788989948e-02 0.0000000000000000e+00  7.2064055786074891e-03 1.1103001766466056e-04 0.0000000000000000e+00  -2.3507434604953699e-02 -2.3869948055688610e-04 0.0000000000000000e+00  8.2821822151830240e-06 -2.3497648510035295e-02 0.0000000000000000e+00  -2.5174662512808077e-04 2.3490341627564165e-02 0.0000000000000000e+00  2.3247238972829383e-02 3.1857844828393993e-05 0.0000000000000000e+00  2.3243995894798041e-02 5.8952790600759805e-06 0.0000000000000000e+00  2.1237497192118647e-04 2.5598092548476212e-02 0.0000000000000000e+00  2.3327116757352145e-02 4.2090150908927898e-04 0.0000000000000000e+00  3.5257535040415779e-05 -2.5979832293939513e-02 0.0000000000000000e+00  2.3302434479430388e-05 2.5989715172346307e-02 0.0000000000000000e+00  2.5856035241086119e-02 2.9673098269284002e-05 0.0000000000000000e+00  -2.5972017131496709e-02 4.9207454650570032e-05 0.0000000000000000e+00  -2.2685860470718706e-02 1.8734380296187212e-04 0.0000000000000000e+00  -2.0516708238222387e-04 -2.5565222288677469e-02 0.0000000000000000e+00  -1.9359888652441530e-04 -2.2500974045999426e-02 0.0000000000000000e+00  -2.5552189963316065e-02 5.0895296739289454e-04 0.0000000000000000e+00  2.6010240241442408e-02 2.0424235828212972e-05 0.0000000000000000e+00  7.8791340722402622e-06 2.5932215576072150e-02 0.0000000000000000e+00  2.5563156735572527e-02 4.2070498539308808e-04 0.0000000000000000e+00  -3.0141028519111417e-03 1.5962433914763520e-02 0.0000000000000000e+00  0.0000000000000000e+00 0.0000000000000000e+00 0.0000000000000000e+00  0.0000000000000000e+00 0.0000000000000000e+00 0.0000000000000000e+00  0.0000000000000000e+00 0.0000000000000000e+00 0.0000000000000000e+00  -8.9844529226713281e-06 2.6009089059946179e-02 0.0000000000000000e+00  2.3472077852536214e-05 2.5882885635042496e-02 0.0000000000000000e+00  2.9490122580180175e-05 -2.5919506038792207e-02 0.0000000000000000e+00  -2.5802156805865333e-02 -8.7411277819791183e-06 0.0000000000000000e+00  0.0000000000000000e+00 0.0000000000000000e+00 0.0000000000000000e+00  -7.7496713374811319e-06 -2.5974644309487638e-02 0.0000000000000000e+00  0.0000000000000000e+00 0.0000000000000000e+00 0.0000000000000000e+00  -2.2608658270074720e-02 -2.8469560463579790e-05 0.0000000000000000e+00  -4.5840699537432634e-05 -2.5897752999613135e-02 0.0000000000000000e+00  -2.0764064549032742e-03 2.3838424561458720e-02 0.0000000000000000e+00  -3.4675356630130697e-03 2.5284410676769068e-02 0.0000000000000000e+00  -2.5989342144095717e-02 3.9597945924339016e-06 0.