<?xml version="1.0"?>
<VTKFile type="UnstructuredGrid"  version="0.1"  >
<UnstructuredGrid>
<Piece  NumberOfPoints="778" NumberOfCells="1401">
<Points>
<DataArray  type="Float64"  NumberOfComponents="3"  format="ascii">1 -1 0  6 -1 0  6 1 0  1 1 0  1 6 0  -1 6 0  -1 1 0  -6 1 0  -6 -1 0  -1 -1 0  -1 -6 0  1 -6 0  1 3.5 0  -1 3.5 0  -1 -3.5 0  1 -3.5 0  3.5 -1 0  3.5 1 0  -3.5 -1 0  -3.5 1 0  -1 -2.25 0  1 -2.25 0  2.25 -1 0  2.25 1 0  -1 2.25 0  1 2.25 0  -1 4.75 0  1 4.75 0  -4.75 -1 0  -4.75 1 0  -2.25 1 0  -2.25 -1 0  1 -4.75 0  -1 -4.75 0  4.75 1 0  4.75 -1 0  0 0 0  -2.875 0 0  -1.625 0 0  -4.125 0 0  -6 0 0  0 2.875 0  2.875 0 0  0 6 0  1.625 0 0  0 -2.875 0  0 -1.625 0  0 1.625 0  0 4.125 0  0 -6 0  0 -4.125 0  4.125 0 0  6 0 0  -0.109375 5.0625 0  -5.0625 -0.109375 0  -0.109375 -5.0625 0  5.0625 0.109375 0  0.8125 -0.1875 0  -0.1875 -0.8125 0  -0.8125 0.1875 0  -0.1875 0.8125 0  1 5.375 0  -5.375 1 0  1 -5.375 0  5.375 -1 0  0.53515625 0.46484375 0  -5.375 -1 0  -1 5.375 0  -1 -5.375 0  -0.5 -6 0  5.375 1 0  6 0.5 0  3.5 0.3046875 0  3.43125 -0.34765625 0  2.875 -1 0  4.125 1 0  0.3046875 3.5 0  -0.34765625 3.56875 0  -1 4.125 0  1 4.125 0  -0.3046875 2.25 0  0.34765625 2.18125 0  1 1.625 0  -1 -1.625 0  -0.3046875 -3.5 0  0.34765625 -3.56875 0  1 -4.125 0  0.3046875 -2.25 0  -0.34765625 -2.18125 0  -1 -4.125 0  -1 -2.875 0  1 -2.875 0  1 -1.625 0  1.625 -1 0  1.625 1 0  2.25 0.3046875 0  2.18125 -0.34765625 0  4.125 -1 0  2.875 1 0  1 2.875 0  -1 1.625 0  -1 2.875 0  -4.125 -1 0  -2.25 0.3046875 0  -2.31875 -0.34765625 0  -2.875 -1 0  -1.625 1 0  -4.125 1 0  -3.5 0.3046875 0  -3.56875 -0.34765625 0  -1.625 -1 0  -2.875 1 0  0.380626321794301 1.06853329530276 0  -1.110819327731092 -0.3739495798319328 0  0.3739495798319328 -1.110819327731092 0  1.151210293219304 0.3991939332620648 0  -0.5 -4.4375 0  0.5 -4.4375 0  5.481553398058253 -0.3712833737864077 0  0.5 4.4375 0  0.5 6 0  -0.522503783594538 -0.3265648647465863 0  -1.3125 0.5 0  -0.5 6 0  0.3265648647465863 -0.522503783594538 0  4.4375 0.5 0  4.4375 -0.5 0  0.5 -6 0  -6 -0.5 0  -5.481553398058253 0.3712833737864077 0  -4.55 -0.4296875 0  -4.4375 0.5 0  -0.5 4.4375 0  0.4792930825242718 5.026881067961165 0  0.4792930825242718 -5.026881067961165 0  -0.5 1.3125 0  1.3125 -0.5 0  -0.5 -1.3125 0  0.25 5.518539952962044 0  0.2125133872612723 -5.500076563152851 0  4.969341874373811 -0.5152550785163683 0  -4.969341874373811 0.5152550785163683 0  3.927189744345589 -0.4712876597840069 0  -5.554036458333333 -0.25 0  5.554036458333333 0.25 0  -0.4690710616438356 -5.462756849315069 0  -0.4690710616438356 5.462756849315069 0  -6 0.5 0  -1.59556436210848 -0.5 0  -3.058421751829955 -0.5 0  -0.5 2.731982421875 0  0.5 2.691578248170045 0  2.691578248170045 -0.5 0  1.641211254104555 0.5 0  0.5 -1.768017578125 0  0.5 -3.058421751829955 0  0.5 1.699267578125 0  3.018017578125 0.5 0  -0.5 -3.018017578125 0  -2.731982421875 0.5 0  6 -0.5 0  -4.050017120925308 -0.5006099332648871 0  -3.940668202764977 0.5371363767281105 0  3.940668202764977 0.5371363767281105 0  0.4517449476047904 3.958458083832335 0  -0.4517449476047904 -3.958458083832335 0  -1.809331797235023 0.5371363767281105 0  -0.4517449476047904 1.791541916167665 0  -0.0546875 4.59375 0  -5.006445312499999 -0.58984375 0  4.605643203883496 -0.04725424757281554 0  4.90625 0.5546875 0  -0.5546875 4.90625 0  0.04725424757281554 -4.605643203883496 0  -0.586116118210531 -4.995821561900013 0  -4.603710222472543 0.04846236095466061 0  -3.1875 0.65234375 0  0.6163907621110913 3.147502300973589 0  2.5625 0.65234375 0  0.6163907621110913 -2.602497699026411 0  -0.637456713551384 3.189259902731882 0  -0.637456713551384 -2.560740097268118 0  -0.34765625 0.34765625 0  -0.639453125 0.708203125 0  0.089630126953125 0.437286376953125 0  -0.4238281249999999 -1.746875 0  1.746875 -0.4238281249999999 0  -0.4238281249999999 4.003125 0  0.4238281249999999 -4.003125 0  -2.5625 -1 0  3.1875 -1 0  -0.09375 -1.21875 0  1.21875 -0.09375 0  0.4020305405760241 -0.1120343241705621 0  -0.6280191027904287 -0.7577505545748082 0  0.90625 -0.59375 0  -1.205500904741459 0.03633725387965409 0  -0.02129048848213058 1.202028574265107 0  -0.1120343241705621 -0.4020305405760241 0  1 1.3125 0  -2.003587563743074 -0.6442361556699288 0  0.6640077663259718 -1.395873598614549 0  5.6875 -1 0  0.6308138580859101 -5.592151086468728 0  -5.6875 -1 0  0.6568032075915271 5.612942566073222 0  5.616530031741774 0.6612875396772174 0  -5.6875 1 0  1.9375 1 0  -1.3125 -1 0  0.1524679547155687 -3.232579139388032 0  0.1524679547155687 2.517420860611968 0  -3.232579139388032 -0.1524679547155687 0  -1.932320553757026 -0.252759244693845 0  2.517420860611968 -0.1524679547155687 0  -0.04776045819569434 -2.464949198504599 0  -0.2420369079104247 3.187693796852321 0  3.751304711039982 -0.1203080877045035 0  -5.397601941771943 -0.609026059866711 0  1.3125 1 0  1.9375 -1 0  -0.6946315101963667 -2.018229242739021 0  -0.6946315101963667 3.731770757260979 0  1 -3.8125 0  2.014364435550335 0.6166648446293641 0  -1 5.6875 0  -1 -5.6875 0  -2.653476149871182 -0.5942957192996303 0  3.096523850128818 -0.5942957192996303 0  1 1.9375 0  -3.8125 -1 0  0.586975531244212 -0.7975955463807081 0  -0.2946248980953088 -4.743710873809568 0  2.625453376770019 0.2814788818359375 0  -3.124546623229981 0.2814788818359375 0  -0.1204856417894853 5.631800603217465 0  5.253862011026742 0.6581468962876398 0  -0.65234375 2.108701557941197 0  0.65234375 3.641298442058803 0  -0.65234375 -3.641298442058803 0  -0.25 -5.744880569758637 0  -4.4375 -1 0  -0.3166212631734941 -2.713595940002554 0  0.6591479224207506 0.1324305912687024 0  0.8660781906552419 0.6468634238104103 0  -0.9887189158197679 0.6452930723873549 0  0.3149351927204296 -1.460971774996065 0  -0.3572852727880474 -0.009629022788047503 0  2.09375 -0.6866724363772454 0  0.6866724363772454 -3.65625 0  0.6866724363772454 2.09375 0  -3.65625 -0.6866724363772454 0  -3.5371337890625 0.65234375 0  -0.1389584113023952 1.944025352615082 0  -2.151744288472698 0.65234375 0  -0.1389584113023951 -3.805974647384918 0  0.1389584113023951 3.805974647384918 0  -2.578772109813904 0.1857224367977529 0  3.171227890186096 0.1857224367977529 0  3.360315647536819 0.65234375 0  0.1857224367977528 -1.921227890186096 0  0.65234375 -2.110315647536819 0  1.894016528727564 0.2415406141485869 0  -3.738232421875 0 0  0.2516875549238616 3.139069895099618 0  -1.913724396854074 0.2011142179916434 0  0.1669456568161915 0.7843410671359501 0  -2.5625 1 0  -1 -3.1875 0  -1 2.5625 0  0.1736601499778735 4.857955663330752 0  -0.1893536587212888 2.577300639071919 0  -0.1893536587212888 -3.172699360928081 0  3.852271904453858 0.206603749322895 0  -3.8125 1 0  -0.1250095034621793 -5.421707592768541 0  3.8125 -1 0  3.617304217264373 -0.6578427703661498 0  0.2630176195580202 -2.636558318495885 0  0.2674330357770522 1.399517071108871 0  0.631726413079416 1.339254523727593 0  4.700571879807737 0.2813704945051134 0  0.7143844363649634 -3.319538455208831 0  2.430461544791169 -0.7143844363649634 0  0.7143844363649634 2.430461544791169 0  -3.319538455208831 -0.7143844363649634 0  5.687045771608623 -0.6520598572553891 0  -5.687045771608623 0.6520598572553891 0  -1.15625 -0.7048248829733235 0  3.438284572973296 -0.01860298867862281 0  -0.03021088078697859 3.451572359862192 0  2.216682837011589 -0.02159585961918548 0  -2.191580885932936 -0.03126387444658879 0  0.1857410764408683 1.895679405349457 0  3.103473238297955 -0.253270943723272 0  -2.646526761702045 -0.253270943723272 0  -2.333137350671861 -0.6791984914172315 0  -1 5.0625 0  -0.6971235589909319 5.213002544375844 0  0.01618705363819947 2.225929180591695 0  0.01618705363819947 -3.524070819408305 0  0.5690054882403073 0.7951310720450595 0  -0.5764940424412852 -3.329579265180942 0  -0.5764940424412852 2.420420734819058 0  3.8125 1 0  -5.372163860234628 0.04365139563106807 0  5.164108319316826 -0.225040894204947 0  -5.361952437854323 0.6744012088984681 0  -5.0625 1 0  5.286835586913878 -0.6616705837083201 0  -5.692815197359722 0.1186699900166531 0  5.663425996156958 -0.07763197815533956 0  -0.9219866027132193 -0.1143045829323572 0  -1.394333629759332 -0.2233077430199216 0  0.09322478991596644 -0.9616596638655462 0  5.0625 -1 0  -0.14412109375 -1.92169189453125 0  -4.28125 -0.7212148987671345 0  0.2649796277366407 0.1735162902120744 0  -4.907855692236596 0.1868230509619793 0  -1.9375 1 0  1 5.0625 0  0.6915124486819284 -5.272938212550202 0  0.683483242673902 5.284948082526911 0  2.5625 -1 0  -1 -3.8125 0  -1 1.9375 0  5.0625 1 0  -1 -1.9375 0  1 5.6875 0  1 -5.6875 0  -1.9375 -1 0  -1 -2.5625 0  -1 3.1875 0  1 -3.1875 0  1 -2.5625 0  1 2.5625 0  1 3.1875 0  -5.0625 -1 0  -1 -1.3125 0  1.3125 -1 0  -1 1.3125 0  -1 3.8125 0  -1 4.4375 0  -4.4375 1 0  4.4375 -1 0  4.4375 1 0  -1.3125 1 0  1 4.4375 0  1 -4.4375 0  -1 -5.0625 0  -1 -4.4375 0  -3.1875 1 0  2.5625 1 0  1 -1.9375 0  1 -1.3125 0  5.6875 1 0  1 3.8125 0  3.1875 1 0  -3.1875 -1 0  1 -5.0625 0  1.35138038998199 0.6675097549271188 0  -0.465625 0.986328125 0  1.435958105992309 0.2563920171199723 0  1.915914614192913 -0.145782394639918 0  -0.8764440609469509 -0.5746869313612541 0  5.355194559946098 0.01566259380337612 0  -5.69333042954964 -0.5242868300459975 0  1.78125 -0.7320750794491524 0  0.7320750794491525 -3.96875 0  -0.3959075548864684 5.166422468926435 0  -4.770522389068053 -0.2123670725088856 0  -4.714160156249999 -0.69234375 0  -4.273484403713342 -0.278160994327167 0  0.9642590244517505 0.08196089404241463 0  0.3500261717645397 -4.727285205957206 0  0.6740868006020392 -4.765147848348443 0  0.6797550207247084 -1.089747806381148 0  -5.186479934354063 0.3046329157552757 0  -5.263288238215326 -0.3369092276308425 0  -2.433484016245305 0.5442571297016638 0  0.1707808983307866 -3.82363304980935 0  -0.1554012991031027 3.867535742674252 0  4.855508096805579 -0.2283975605264581 0  3.644517238097614 0.5646428152488787 0  0.05699603874439441 -0.6452791208413911 0  -0.3550018917972689 -0.5695324323732931 0  0.6
[...]
<PointData  Vectors="u"> 
<DataArray  type="Float64"  Name="u"  NumberOfComponents="3" format="ascii">0.0000000000000000e+00 0.0000000000000000e+00 0.0000000000000000e+00  0.0000000000000000e+00 0.0000000000000000e+00 0.0000000000000000e+00  0.0000000000000000e+00 0.0000000000000000e+00 0.0000000000000000e+00  0.0000000000000000e+00 0.0000000000000000e+00 0.0000000000000000e+00  0.0000000000000000e+00 0.0000000000000000e+00 0.0000000000000000e+00  0.0000000000000000e+00 0.0000000000000000e+00 0.0000000000000000e+00  0.0000000000000000e+00 0.0000000000000000e+00 0.0000000000000000e+00  0.0000000000000000e+00 0.0000000000000000e+00 0.0000000000000000e+00  0.0000000000000000e+00 0.0000000000000000e+00 0.0000000000000000e+00  0.0000000000000000e+00 0.0000000000000000e+00 0.0000000000000000e+00  0.0000000000000000e+00 0.0000000000000000e+00 0.0000000000000000e+00  0.0000000000000000e+00 0.0000000000000000e+00 0.0000000000000000e+00  0.0000000000000000e+00 0.0000000000000000e+00 0.0000000000000000e+00  0.0000000000000000e+00 0.0000000000000000e+00 0.0000000000000000e+00  0.0000000000000000e+00 0.0000000000000000e+00 0.0000000000000000e+00  0.0000000000000000e+00 0.0000000000000000e+00 0.0000000000000000e+00  0.0000000000000000e+00 0.0000000000000000e+00 0.0000000000000000e+00  0.0000000000000000e+00 0.0000000000000000e+00 0.0000000000000000e+00  0.0000000000000000e+00 0.0000000000000000e+00 0.0000000000000000e+00  0.0000000000000000e+00 0.0000000000000000e+00 0.0000000000000000e+00  0.0000000000000000e+00 0.0000000000000000e+00 0.0000000000000000e+00  0.0000000000000000e+00 0.0000000000000000e+00 0.0000000000000000e+00  0.0000000000000000e+00 0.0000000000000000e+00 0.0000000000000000e+00  0.0000000000000000e+00 0.0000000000000000e+00 0.0000000000000000e+00  0.0000000000000000e+00 0.0000000000000000e+00 0.0000000000000000e+00  0.0000000000000000e+00 0.0000000000000000e+00 0.0000000000000000e+00  0.0000000000000000e+00 0.0000000000000000e+00 0.0000000000000000e+00  0.0000000000000000e+00 0.0000000000000000e+00 0.0000000000000000e+00  0.0000000000000000e+00 0.0000000000000000e+00 0.0000000000000000e+00  0.0000000000000000e+00 0.0000000000000000e+00 0.0000000000000000e+00  0.0000000000000000e+00 0.0000000000000000e+00 0.0000000000000000e+00  0.0000000000000000e+00 0.0000000000000000e+00 0.0000000000000000e+00  0.0000000000000000e+00 0.0000000000000000e+00 0.0000000000000000e+00  0.0000000000000000e+00 0.0000000000000000e+00 0.0000000000000000e+00  0.0000000000000000e+00 0.0000000000000000e+00 0.0000000000000000e+00  0.0000000000000000e+00 0.0000000000000000e+00 0.0000000000000000e+00  -1.2483264225725710e-04 3.5709705460078056e-05 0.0000000000000000e+00  2.0543648398069821e-02 -5.6345183062950353e-06 0.0000000000000000e+00  1.9541076273623302e-02 5.5577738402882831e-05 0.0000000000000000e+00  2.0553556482783009e-02 4.8663393216615587e-08 0.0000000000000000e+00  2.0576763043717385e-02 1.7908924884475252e-05 0.0000000000000000e+00  4.9113449071071753e-06 2.0509040905042991e-02 0.0000000000000000e+00  -2.0494047585697023e-02 2.3580368094616783e-05 0.0000000000000000e+00  1.8607944965861572e-05 2.0514357301115529e-02 0.0000000000000000e+00  -1.9580453486137572e-02 7.0063147045277847e-05 0.0000000000000000e+00  6.6683852341589830e-06 -2.0511770552219231e-02 0.0000000000000000e+00  -2.5645907608362085e-05 -1.9427076044159476e-02 0.0000000000000000e+00  2.1996402163099112e-05 1.9424954382318154e-02 0.0000000000000000e+00  2.1049634154679657e-05 2.0520639428687839e-02 0.0000000000000000e+00  2.0628899603234706e-05 -2.0512663820608384e-02 0.0000000000000000e+00  2.8600115228484426e-05 -2.0547603652302654e-02 0.0000000000000000e+00  -2.0564329137570180e-02 -4.1046620792895667e-06 0.0000000000000000e+00  -2.0534890425303980e-02 -1.9824450327331311e-05 0.0000000000000000e+00  -2.1924813764997423e-05 2.0568244180374208e-02 0.0000000000000000e+00  2.0512117948778493e-02 -1.8947480191238413e-05 0.0000000000000000e+00  -3.0668990409290108e-05 -2.0388374614912712e-02 0.0000000000000000e+00  -2.0455915241495769e-02 -2.2851506445476554e-05 0.0000000000000000e+00  -1.3204284382699067e-02 -2.8086004174879913e-03 0.0000000000000000e+00  2.5788507169470865e-03 -1.2887635166775047e-02 0.0000000000000000e+00  1.2841348753220502e-02 2.8314613787785181e-03 0.0000000000000000e+00  2.7649194230172317e-03 1.2903383322518313e-02 0.0000000000000000e+00  0.0000000000000000e+00 0.0000000000000000e+00 0.0000000000000000e+00  0.0000000000000000e+00 0.0000000000000000e+00 0.0000000000000000e+00  0.0000000000000000e+00 0.0000000000000000e+00 0.0000000000000000e+00  0.0000000000000000e+00 0.0000000000000000e+00 0.0000000000000000e+00  -9.1266729885168818e-03 7.5929451407645296e-03 0.0000000000000000e+00  0.0000000000000000e+00 0.0000000000000000e+00 0.0000000000000000e+00  0.0000000000000000e+00 0.0000000000000000e+00 0.0000000000000000e+00  0.0000000000000000e+00 0.0000000000000000e+00 0.0000000000000000e+00  3.9346051698204202e-05 -1.9595997846008843e-02 0.0000000000000000e+00  0.0000000000000000e+00 0.0000000000000000e+00 0.0000000000000000e+00  -2.0477101953744161e-02 -3.9436965959347725e-06 0.0000000000000000e+00  -2.0330603894840489e-02 3.4418875769031372e-05 0.0000000000000000e+00  -2.0269261396440447e-02 -6.2999111553489517e-06 0.0000000000000000e+00  0.0000000000000000e+00 0.0000000000000000e+00 0.0000000000000000e+00  0.0000000000000000e+00 0.0000000000000000e+00 0.0000000000000000e+00  9.8567993552179650e-06 2.0450878869037459e-02 0.0000000000000000e+00  -7.2234935771095157e-06 2.0440306732557395e-02 0.0000000000000000e+00  0.0000000000000000e+00 0.0000000000000000e+00 0.0000000000000000e+00  0.0000000000000000e+00 0.0000000000000000e+00 0.0000000000000000e+00  9.9177521635061090e-05 2.0245663370976684e-02 0.0000000000000000e+00  -1.6927339506505920e-04 2.0382609255194126e-02 0.0000000000000000e+00  0.0000000000000000e+00 0.0000000000000000e+00 0.0000000000000000e+00  0.0000000000000000e+00 0.0000000000000000e+00 0.0000000000000000e+00  3.5220214901447161e-05 -2.0356836235232840e-02 0.0000000000000000e+00  7.0489865576444989e-06 -2.0474552219140428e-02 0.0000000000000000e+00  0.0000000000000000e+00 0.0000000000000000e+00 0.0000000000000000e+00  -9.4515295091465856e-05 -2.0429820445724653e-02 0.0000000000000000e+00  2.0344610440644890e-04 -2.0328773672877238e-02 0.0000000000000000e+00  0.0000000000000000e+00 0.0000000000000000e+00 0.0000000000000000e+00  0.0000000000000000e+00 0.0000000000000000e+00 0.0000000000000000e+00  0.0000000000000000e+00 0.0000000000000000e+00 0.0000000000000000e+00  0.0000000000000000e+00 0.0000000000000000e+00 0.0000000000000000e+00  0.0000000000000000e+00 0.0000000000000000e+00 0.0000000000000000e+00  0.0000000000000000e+00 0.0000000000000000e+00 0.0000000000000000e+00  -2.0173831941390535e-02 1.6389548465278722e-04 0.0000000000000000e+00  -2.0369247223580023e-02 -1.4334698778854866e-04 0.0000000000000000e+00  0.0000000000000000e+00 0.0000000000000000e+00 0.0000000000000000e+00  0.0000000000000000e+00 0.0000000000000000e+00 0.0000000000000000e+00  0.0000000000000000e+00 0.0000000000000000e+00 0.0000000000000000e+00  0.0000000000000000e+00 0.0000000000000000e+00 0.0000000000000000e+00  0.0000000000000000e+00 0.0000000000000000e+00 0.0000000000000000e+00  0.0000000000000000e+00 0.0000000000000000e+00 0.0000000000000000e+00  2.0166487622255893e-02 1.8762031315400001e-04 0.0000000000000000e+00  2.0237901227951150e-02 -1.1905035236673463e-04 0.0000000000000000e+00  0.0000000000000000e+00 0.0000000000000000e+00 0.0000000000000000e+00  0.0000000000000000e+00 0.0000000000000000e+00 0.0000000000000000e+00  0.0000000000000000e+00 0.0000000000000000e+00 0.0000000000000000e+00  2.0207618956095540e-02 3.3263046393390475e-05 0.0000000000000000e+00  2.0495132767026771e-02 9.2466432141273946e-06 0.0000000000000000e+00  0.0000000000000000e+00 0.0000000000000000e+00 0.0000000000000000e+00  0.0000000000000000e+00 0.0000000000000000e+00 0.0000000000000000e+00  -3.7883894710638317e-03 1.6994539282795821e-02 0.0000000000000000e+00  1.7529004613868616e-02 -3.8759398548710291e-03 0.0000000000000000e+00  -3.5141539534765628e-03 -1.7763094478805978e-02 0.0000000000000000e+00  -1.7955079349806034e-02 3.4181685072902845e-03 0.0000000000000000e+00  3.0820424355303609e-05 -1.9461722217389975e-02 0.0000000000000000e+00  -6.0223045005975493e-06 -2.0432499110849132e-02 0.0000000000000000e+00  -2.0321219469559188e-02 -2.2493702237313888e-05 0.0000000000000000e+00  -8.4728419711869555e-07 2.0398708658134233e-02 0.0000000000000000e+00  4.2866023072269070e-05 2.0271625272223134e-02 0.0000000000000000e+00  8.6093755757883812e-03 -5.3848925984660480e-03 0.0000000000000000e+00  1.9534019089963158e-02 2.8043827134913348e-03 0.0000000000000000e+00  2.8179412557724595e-05 1.9567433522684995e-02 0.0000000000000000e+00  -5.0502734620995089e-03 -8.4957058314553101e-03 0.0000000000000000e+00  -2.0189059265609176e-02 2.0237209186671853e-05 0.0000000000000000e+00  -2.0443688356120652e-02 9.0772566629680714e-06 0.0000000000000000e+00  4.4570923081900009e-05 -2.0207728430165842e-02 0.0000000000000000e+00  2.0485514919644843e-02 1.0368812918964216e-05 0.0000000000000000e+00  2.0277517125239831e-02 2.7584976299179564e-05 0.0000000000000000e+00  2.0405500576324214e-02 5.2140444177190853e-06 0.0000000000000000e+00  1.9300860320060252e-02 -8.7648574225059248e-06 0.0000000000000000e+00  2.9541968934137206e-05 2.0243465106106553e-02 0.0000000000000000e+00  -2.7661980934503250e-05 2.0430653420560375e-02 0.0000000000000000e+00  -1.0384878273526044e-05 -2.0334243522605919e-02 0.0000000000000000e+00  3.2090571177307661e-03 2.0155671372703316e-02 0.0000000000000000e+00  -1.9717322466319909e-02 -3.0002387628898764e-03 0.0000000000000000e+00  2.7668262504665871e-03 -1.9575674221722301e-02 0.0000000000000000e+00  1.5418218089925646e-05 2.0461322045471894e-02 0.0000000000000000e+00  -8.3869327449201407e-06 -2.0562358830360207e-02 0.0000000000000000e+00  -2.0459275767381869e-02 -4.3689302091519017e-05 0.0000000000000000e+00  1.9361415330342073e-02 1.3608752337577805e-05 0.0000000000000000e+00  -2.0289457337671145e-02 -9.9260508156398814e-06 0.0000000000000000e+00  2.0354715139163416e-02 -5.0177385733504670e-06 0.0000000000000000e+00  -2.0472669142998872e-02 -5.4218120855672897e-05 0.0000000000000000e+00  8.5488046795681837e-06 -2.0305279846838740e-02 0.0000000000000000e+00  2.6637089509912124e-06 2.0283466840043854e-02 0.0000000000000000e+00  1.9728258474525431e-02 5.8648184263415972e-05 0.0000000000000000e+00  2.0274618876983955e-02 -1.1537385946678042e-03 0.0000000000000000e+00  2.0367628062912542e-02 -2.1063818122599798e-06 0.0000000000000000e+00  1.4165886670478515e-05 2.0328412666278731e-02 0.0000000000000000e+00  -5.2060875037625949e-05 2.0247291256592966e-02 0.0000000000000000e+00  -2.0330271304117086e-02 -6.1997326916475891e-06 0.0000000000000000e+00  -2.0309825932416033e-02 1.1760877924623444e-03 0.0000000000000000e+00  -7.7577934759458591e-04 -2.0308559498152835e-02 0.0000000000000000e+00  1.0447917790663117e-05 -2.0246508943759726e-02 0.0000000000000000e+00  -8.5707375929353806e-04 2.0455695853595357e-02 0.0000000000000000e+00  -2.0410186740981939e-02 5.5995244858408345e-05 0.0000000000000000e+00  2.8635376173342780e-05 -2.0312029284337341e-02 0.0000000000000000e+00  2.0245763968004912e-02 2.3582718160908411e-06 0.0000000000000000e+00  -1.9541076226807664e-02 -2.7628693638310539e-06 0.0000000000000000e+00  2.0441376875107102e-02 -3.2440733992489139e-06 0.0000000000000000e+00  1.9460214707920972e-02 -7.3054622579334829e-05 0.0000000000000000e+00  -1.9485265301698553e-02 -1.4957841912568683e-04 0.0000000000000000e+00  2.5042992998419343e-05 2.0287355068510652e-02 0.0000000000000000e+00  3.3118559551700734e-05 -2.0261915626445186e-02 0.0000000000000000e+00  1.9484314556807186e-02 6.0872644408850271e-04 0.0000000000000000e+00  6.7268935323235946e-04 2.0133418112485809e-02 0.0000000000000000e+00  2.6735406620620835e-05 2.0519302914785237e-02 0.0000000000000000e+00  1.9617241897058421e-02 -4.9067633975236649e-07 0.0000000000000000e+00  -2.0551894817837722e-02 -5.0509401407868323e-06 0.0000000000000000e+00  -1.7664319734191556e-02 4.0160598948836778e-05 0.0000000000000000e+00  2.1066533998166819e-05 1.7021416375232138e-02 0.0000000000000000e+00  -3.4411434406558483e-06 -2.0556505606383686e-02 0.0000000000000000e+00  -6.2411348940791229e-05 -1.7369939390606388e-02 0.0000000000000000e+00  2.0543700363319324e-02 -1.0069931660976781e-05 0.0000000000000000e+00  1.7096503679482657e-02 3.0837171097803802e-05 0.0000000000000000e+00  -3.1786338769909079e-06 1.7720969724409057e-02 0.0000000000000000e+00  -1.9891200784799459e-02 1.2788192460587338e-04 0.0000000000000000e+00  -3.3086431746153350e-05 -1.7702337991679352e-02 0.0000000000000000e+00  6.9376237356246048e-05 1.7686820026116629e-02 0.0000000000000000e+00  -6.6067463754518158e-06 -1.7440488645697576e-02 0.0000000000000000e+00  5.6202224043745194e-03 5.4456117810225343e-03 0.0000000000000000e+00  1.0571863145412424e-02 1.2348270045735153e-02 0.0000000000000000e+00  -1.3886070335537390e-03 7.0567119593568928e-03 0.0000000000000000e+00  7.9387001345485714e-04 -2.0137446125131818e-02 0.0000000000000000e+00  -2.0104045579167371e-02 -7.1014737149230963e-04 0.0000000000000000e+00  -1.1073623940178231e-05 2.0254084181082248e-02 0.0000000000000000e+00  7.7988333118308267e-06 -2.0292644673835101e-02 0.0000000000000000e+00  0.0000000000000000e+00 0.0000000000000000e+00 0.0000000000000000e+00  0.0000000000000000e+00 0.0000000000000000e+00 0.0000000000000000e+00  9.3073027986616925e-04 -1.7340161299683944e-02 0.0000000000000000e+00  -1.7444394834838142e-02 -5.4533891787513790e-04 0.0000000000000000e+00  -6.5870360997247069e-03 -1.6855384636549121e-03 0.0000000000000000e+00  1.0960417281126577e-02 -1.4066522521568836e-02 0.0000000000000000e+00  -1.7348088035550862e-02 -8.6426788671356957e-03 0.0000000000000000e+00  1.7420040919605088e-02 5.2251677537494209e-04 0.0000000000000000e+00  1.0127962141838790e-04 1.7191665712725852e-02 0.0000000000000000e+00  1.7298577776610861e-03 -6.5259083929290855e-03 0.0000000000000000e+00  0.0000000000000000e+00 0.0000000000000000e+00 0.0000000000000000e+00  1.7886850290607933e-02 -2.9693701376950300e-04 0.0000000000000000e+00  -2.2480900482510623e-03 -2.0322273490499806e-02 0.0000000000000000e+00  0.0000000000000000e+00 0.0000000000000000e+00 0.0000000000000000e+00  7.2355385817936919e-05 -1.7745279364193563e-02 0.0000000000000000e+00  0.0000000000000000e+00 0.0000000000000000e+00 0.0000000000000000e+00  9.3066428399686961e-05 1.8151642924391507e-02 0.0000000000000000e+00  -1.8215342888483702e-02 -1.4603787545758824e-04 0.0000000000000000e+00  0.0000000000000000e+00 0.0000000000000000e+00 0.0000000000000000e+00  0.0000000000000000e+00 0.0000000000000000e+00 0.0000000000000000e+00  0.0000000000000000e+00 0.0000000000000000e+00 0.0000000000000000e+00  1.1598944444570281e-05 -2.0503266071739162e-02 0.0000000000000000e+00  -3.7301832803394945e-05 2.0460737501883215e-02 0.0000000000000000e+00  2.0536310300589243e-02 4.6975726751517373e-06 0.0000000000000000e+00  2.0202257905185303e-02 -3.2078489454214295e-04 0.0000000000000000e+00  -2.0451623050777246e-02 -1.9826111603039509e-05 0.0000000000000000e+00  1.5562794298437930e-05 -2.0468015899601694e-02 0.0000000000000000e+00  2.1892371063167605e-05 2.0401361754286453e-02 0.0000000000000000e+00  -2.0547820769098977e-02 3.8578654455321593e-06 0.0000000000000000e+00  1.7322673612878071e-02 1.2282661908965212e-06 0.0000000000000000e+00  0.0000000000000000e+00 0.0000000000000000e+00 0.0000000000000000e+00  0.0000000000000000e+00 0.0000000000000000e+00 0.0000000000000000e+00  4.2125199729252388e-04 -1.8168805983895857e-02 0.0000000000000000e+00  -9.2898706500601298e-05 1.8137650077955456e-02 0.0000000000000000e+00  0.0000000000000000e+00 0.0000000000000000e+00 0.0000000000000000e+00  -1.9709450545397189e-02 2.7643270646572399e-04 0.0000000000000000e+00  0.0000000000000000e+00 0.0000000000000000e+00 0.0000000000000000e+00  0.0000000000000000e+00 0.0000000000000000e+00 0.0000000000000000e+00  1.9811373257069033e-02 5.1860959030917270e-05 0.0000000000000000e+00  -1.9672522047288022e-02 -2.4721399118503302e-05 0.0000000000000000e+00  0.0000000000000000e+00 0.0000000000000000e+00 0.0000000000000000e+00  0.0000000000000000e+00 0.0000000000000000e+00 0.0000000000000000e+00  -9.5385212794818607e-03 -1.4842462548615301e-02 0.0000000000000000e+00  -1.4325993367759597e-05 -2.0254916867372977e-02 0.0000000000000000e+00  -2.0328208076107641e-02 6.8516331296731293e-05 0.0000000000000000e+00  2.0435172120406183e-02 1.9091832534012971e-06 0.0000000000000000e+00  1.6662215964987156e-05 2.0535629562844795e-02 0.0000000000000000e+00  -1.8138769138612027e-02 -9.2871364755573482e-05 0.0000000000000000e+00  1.2472427308587303e-04 1.7892704255204565e-02 0.0000000000000000e+00  -9.1918541229079247e-06 1.7839797318172746e-02 0.0000000000000000e+00  5.7851105707780845e-05 -1.7816074010315850e-02 0.0000000000000000e+00  2.1345498240467055e-05 -2.0330961116400918e-02 0.0000000000000000e+00  0.0000000000000000e+00 0.0000000000000000e+00 0.0000000000000000e+00  3.9509352986654897e-06 -2.0275824511994618e-02 0.0000000000000000e+00  -1.0473472476824520e-02 2.1483344396114215e-03 0.0000000000000000e+00  -1.5847050282088309e-02 1.0655804842047180e-02 0.0000000000000000e+00  1.8339308720093941e-02 8.5758161270183819e-03 0.0000000000000000e+00  -1.5038804834304950e-03 -1.9264736003773451e-02 0.0000000000000000e+00  5.6661186973549623e-03 1.1720452653346770e-04 0.0000000000000000e+00  -1.8362369211835532e-02 -1.9271725715924216e-04 0.0000000000000000e+00  6.0436134183044010e-06 -1.8373752753528677e-02 0.0000000000000000e+00  -2.0333162775058736e-04 1.8351135932711177e-02 0.0000000000000000e+00  1.8152739224684519e-02 2.2744054849060618e-05 0.0000000000000000e+00  1.8107083648012973e-02 -1.3887901222513343e-06 0.0000000000000000e+00  1.6941051548025567e-04 2.0211636610493473e-02 0.0000000000000000e+00  1.8140816885117605e-02 3.3904824236245476e-04 0.0000000000000000e+00  2.8881989778476576e-05 -2.0517349888359689e-02 0.0000000000000000e+00  1.8610522840611104e-05 2.0527240706849807e-02 0.0000000000000000e+00  2.0410746768052594e-02 2.6907787280133157e-05 0.0000000000000000e+00  -2.0514969269207983e-02 3.9300488875521276e-05 0.0000000000000000e+00  -1.7648959543912737e-02 1.4241968182215889e-04 0.0000000000000000e+00  -1.6378200174193593e-04 -2.0190782985207465e-02 0.0000000000000000e+00  -1.6138195496763746e-04 -1.7503516365063605e-02 0.0000000000000000e+00  -2.0169351905676453e-02 4.1220437178632010e-04 0.0000000000000000e+00  2.0543994692090697e-02 1.6243726597377948e-05 0.0000000000000000e+00  5.4505768486555119e-06 2.0472673125858772e-02 0.0000000000000000e+00  2.0183292931942959e-02 3.3928875593281145e-04 0.0000000000000000e+00  -2.3597244730271501e-03 1.2579667420326330e-02 0.0000000000000000e+00  0.0000000000000000e+00 0.0000000000000000e+00 0.0000000000000000e+00  0.0000000000000000e+00 0.0000000000000000e+00 0.0000000000000000e+00  0.0000000000000000e+00 0.0000000000000000e+00 0.0000000000000000e+00  -7.4859807333078053e-06 2.0546376170322837e-02 0.0000000000000000e+00  1.9413353247434869e-05 2.0440903866686115e-02 0.0000000000000000e+00  2.3081927205422732e-05 -2.0471342595937053e-02 0.0000000000000000e+00  -2.0350889946851729e-02 -9.6182251353125822e-06 0.0000000000000000e+00  0.0000000000000000e+00 0.0000000000000000e+00 0.0000000000000000e+00  -5.5917762428567946e-06 -2.0512860067015321e-02 0.0000000000000000e+00  0.0000000000000000e+00 0.0000000000000000e+00 0.0000000000000000e+00  -1.7632064792939842e-02 -2.4521179191970870e-05 0.0000000000000000e+00  -3.6744822152037441e-05 -2.0444914521322820e-02 0.0000000000000000e+00  -1.6703044493994023e-03 1.8802525332033974e-02 0.0000000000000000e+00  -2.8390427391469042e-03 2.0001470678132214e-02 0.0000000000000000e+00  -2.0515772483284778e-02 3.2002500848672443e-06