<?xml version="1.0"?>
<VTKFile type="UnstructuredGrid"  version="0.1"  >
<UnstructuredGrid>
<Piece  NumberOfPoints="778" NumberOfCells="1401">
<Points>
<DataArray  type="Float64"  NumberOfComponents="3"  format="ascii">1 -1 0  6 -1 0  6 1 0  1 1 0  1 6 0  -1 6 0  -1 1 0  -6 1 0  -6 -1 0  -1 -1 0  -1 -6 0  1 -6 0  1 3.5 0  -1 3.5 0  -1 -3.5 0  1 -3.5 0  3.5 -1 0  3.5 1 0  -3.5 -1 0  -3.5 1 0  -1 -2.25 0  1 -2.25 0  2.25 -1 0  2.25 1 0  -1 2.25 0  1 2.25 0  -1 4.75 0  1 4.75 0  -4.75 -1 0  -4.75 1 0  -2.25 1 0  -2.25 -1 0  1 -4.75 0  -1 -4.75 0  4.75 1 0  4.75 -1 0  0 0 0  -2.875 0 0  -1.625 0 0  -4.125 0 0  -6 0 0  0 2.875 0  2.875 0 0  0 6 0  1.625 0 0  0 -2.875 0  0 -1.625 0  0 1.625 0  0 4.125 0  0 -6 0  0 -4.125 0  4.125 0 0  6 0 0  -0.109375 5.0625 0  -5.0625 -0.109375 0  -0.109375 -5.0625 0  5.0625 0.109375 0  0.8125 -0.1875 0  -0.1875 -0.8125 0  -0.8125 0.1875 0  -0.1875 0.8125 0  1 5.375 0  -5.375 1 0  1 -5.375 0  5.375 -1 0  0.53515625 0.46484375 0  -5.375 -1 0  -1 5.375 0  -1 -5.375 0  -0.5 -6 0  5.375 1 0  6 0.5 0  3.5 0.3046875 0  3.43125 -0.34765625 0  2.875 -1 0  4.125 1 0  0.3046875 3.5 0  -0.34765625 3.56875 0  -1 4.125 0  1 4.125 0  -0.3046875 2.25 0  0.34765625 2.18125 0  1 1.625 0  -1 -1.625 0  -0.3046875 -3.5 0  0.34765625 -3.56875 0  1 -4.125 0  0.3046875 -2.25 0  -0.34765625 -2.18125 0  -1 -4.125 0  -1 -2.875 0  1 -2.875 0  1 -1.625 0  1.625 -1 0  1.625 1 0  2.25 0.3046875 0  2.18125 -0.34765625 0  4.125 -1 0  2.875 1 0  1 2.875 0  -1 1.625 0  -1 2.875 0  -4.125 -1 0  -2.25 0.3046875 0  -2.31875 -0.34765625 0  -2.875 -1 0  -1.625 1 0  -4.125 1 0  -3.5 0.3046875 0  -3.56875 -0.34765625 0  -1.625 -1 0  -2.875 1 0  0.380626321794301 1.06853329530276 0  -1.110819327731092 -0.3739495798319328 0  0.3739495798319328 -1.110819327731092 0  1.151210293219304 0.3991939332620648 0  -0.5 -4.4375 0  0.5 -4.4375 0  5.481553398058253 -0.3712833737864077 0  0.5 4.4375 0  0.5 6 0  -0.522503783594538 -0.3265648647465863 0  -1.3125 0.5 0  -0.5 6 0  0.3265648647465863 -0.522503783594538 0  4.4375 0.5 0  4.4375 -0.5 0  0.5 -6 0  -6 -0.5 0  -5.481553398058253 0.3712833737864077 0  -4.55 -0.4296875 0  -4.4375 0.5 0  -0.5 4.4375 0  0.4792930825242718 5.026881067961165 0  0.4792930825242718 -5.026881067961165 0  -0.5 1.3125 0  1.3125 -0.5 0  -0.5 -1.3125 0  0.25 5.518539952962044 0  0.2125133872612723 -5.500076563152851 0  4.969341874373811 -0.5152550785163683 0  -4.969341874373811 0.5152550785163683 0  3.927189744345589 -0.4712876597840069 0  -5.554036458333333 -0.25 0  5.554036458333333 0.25 0  -0.4690710616438356 -5.462756849315069 0  -0.4690710616438356 5.462756849315069 0  -6 0.5 0  -1.59556436210848 -0.5 0  -3.058421751829955 -0.5 0  -0.5 2.731982421875 0  0.5 2.691578248170045 0  2.691578248170045 -0.5 0  1.641211254104555 0.5 0  0.5 -1.768017578125 0  0.5 -3.058421751829955 0  0.5 1.699267578125 0  3.018017578125 0.5 0  -0.5 -3.018017578125 0  -2.731982421875 0.5 0  6 -0.5 0  -4.050017120925308 -0.5006099332648871 0  -3.940668202764977 0.5371363767281105 0  3.940668202764977 0.5371363767281105 0  0.4517449476047904 3.958458083832335 0  -0.4517449476047904 -3.958458083832335 0  -1.809331797235023 0.5371363767281105 0  -0.4517449476047904 1.791541916167665 0  -0.0546875 4.59375 0  -5.006445312499999 -0.58984375 0  4.605643203883496 -0.04725424757281554 0  4.90625 0.5546875 0  -0.5546875 4.90625 0  0.04725424757281554 -4.605643203883496 0  -0.586116118210531 -4.995821561900013 0  -4.603710222472543 0.04846236095466061 0  -3.1875 0.65234375 0  0.6163907621110913 3.147502300973589 0  2.5625 0.65234375 0  0.6163907621110913 -2.602497699026411 0  -0.637456713551384 3.189259902731882 0  -0.637456713551384 -2.560740097268118 0  -0.34765625 0.34765625 0  -0.639453125 0.708203125 0  0.089630126953125 0.437286376953125 0  -0.4238281249999999 -1.746875 0  1.746875 -0.4238281249999999 0  -0.4238281249999999 4.003125 0  0.4238281249999999 -4.003125 0  -2.5625 -1 0  3.1875 -1 0  -0.09375 -1.21875 0  1.21875 -0.09375 0  0.4020305405760241 -0.1120343241705621 0  -0.6280191027904287 -0.7577505545748082 0  0.90625 -0.59375 0  -1.205500904741459 0.03633725387965409 0  -0.02129048848213058 1.202028574265107 0  -0.1120343241705621 -0.4020305405760241 0  1 1.3125 0  -2.003587563743074 -0.6442361556699288 0  0.6640077663259718 -1.395873598614549 0  5.6875 -1 0  0.6308138580859101 -5.592151086468728 0  -5.6875 -1 0  0.6568032075915271 5.612942566073222 0  5.616530031741774 0.6612875396772174 0  -5.6875 1 0  1.9375 1 0  -1.3125 -1 0  0.1524679547155687 -3.232579139388032 0  0.1524679547155687 2.517420860611968 0  -3.232579139388032 -0.1524679547155687 0  -1.932320553757026 -0.252759244693845 0  2.517420860611968 -0.1524679547155687 0  -0.04776045819569434 -2.464949198504599 0  -0.2420369079104247 3.187693796852321 0  3.751304711039982 -0.1203080877045035 0  -5.397601941771943 -0.609026059866711 0  1.3125 1 0  1.9375 -1 0  -0.6946315101963667 -2.018229242739021 0  -0.6946315101963667 3.731770757260979 0  1 -3.8125 0  2.014364435550335 0.6166648446293641 0  -1 5.6875 0  -1 -5.6875 0  -2.653476149871182 -0.5942957192996303 0  3.096523850128818 -0.5942957192996303 0  1 1.9375 0  -3.8125 -1 0  0.586975531244212 -0.7975955463807081 0  -0.2946248980953088 -4.743710873809568 0  2.625453376770019 0.2814788818359375 0  -3.124546623229981 0.2814788818359375 0  -0.1204856417894853 5.631800603217465 0  5.253862011026742 0.6581468962876398 0  -0.65234375 2.108701557941197 0  0.65234375 3.641298442058803 0  -0.65234375 -3.641298442058803 0  -0.25 -5.744880569758637 0  -4.4375 -1 0  -0.3166212631734941 -2.713595940002554 0  0.6591479224207506 0.1324305912687024 0  0.8660781906552419 0.6468634238104103 0  -0.9887189158197679 0.6452930723873549 0  0.3149351927204296 -1.460971774996065 0  -0.3572852727880474 -0.009629022788047503 0  2.09375 -0.6866724363772454 0  0.6866724363772454 -3.65625 0  0.6866724363772454 2.09375 0  -3.65625 -0.6866724363772454 0  -3.5371337890625 0.65234375 0  -0.1389584113023952 1.944025352615082 0  -2.151744288472698 0.65234375 0  -0.1389584113023951 -3.805974647384918 0  0.1389584113023951 3.805974647384918 0  -2.578772109813904 0.1857224367977529 0  3.171227890186096 0.1857224367977529 0  3.360315647536819 0.65234375 0  0.1857224367977528 -1.921227890186096 0  0.65234375 -2.110315647536819 0  1.894016528727564 0.2415406141485869 0  -3.738232421875 0 0  0.2516875549238616 3.139069895099618 0  -1.913724396854074 0.2011142179916434 0  0.1669456568161915 0.7843410671359501 0  -2.5625 1 0  -1 -3.1875 0  -1 2.5625 0  0.1736601499778735 4.857955663330752 0  -0.1893536587212888 2.577300639071919 0  -0.1893536587212888 -3.172699360928081 0  3.852271904453858 0.206603749322895 0  -3.8125 1 0  -0.1250095034621793 -5.421707592768541 0  3.8125 -1 0  3.617304217264373 -0.6578427703661498 0  0.2630176195580202 -2.636558318495885 0  0.2674330357770522 1.399517071108871 0  0.631726413079416 1.339254523727593 0  4.700571879807737 0.2813704945051134 0  0.7143844363649634 -3.319538455208831 0  2.430461544791169 -0.7143844363649634 0  0.7143844363649634 2.430461544791169 0  -3.319538455208831 -0.7143844363649634 0  5.687045771608623 -0.6520598572553891 0  -5.687045771608623 0.6520598572553891 0  -1.15625 -0.7048248829733235 0  3.438284572973296 -0.01860298867862281 0  -0.03021088078697859 3.451572359862192 0  2.216682837011589 -0.02159585961918548 0  -2.191580885932936 -0.03126387444658879 0  0.1857410764408683 1.895679405349457 0  3.103473238297955 -0.253270943723272 0  -2.646526761702045 -0.253270943723272 0  -2.333137350671861 -0.6791984914172315 0  -1 5.0625 0  -0.6971235589909319 5.213002544375844 0  0.01618705363819947 2.225929180591695 0  0.01618705363819947 -3.524070819408305 0  0.5690054882403073 0.7951310720450595 0  -0.5764940424412852 -3.329579265180942 0  -0.5764940424412852 2.420420734819058 0  3.8125 1 0  -5.372163860234628 0.04365139563106807 0  5.164108319316826 -0.225040894204947 0  -5.361952437854323 0.6744012088984681 0  -5.0625 1 0  5.286835586913878 -0.6616705837083201 0  -5.692815197359722 0.1186699900166531 0  5.663425996156958 -0.07763197815533956 0  -0.9219866027132193 -0.1143045829323572 0  -1.394333629759332 -0.2233077430199216 0  0.09322478991596644 -0.9616596638655462 0  5.0625 -1 0  -0.14412109375 -1.92169189453125 0  -4.28125 -0.7212148987671345 0  0.2649796277366407 0.1735162902120744 0  -4.907855692236596 0.1868230509619793 0  -1.9375 1 0  1 5.0625 0  0.6915124486819284 -5.272938212550202 0  0.683483242673902 5.284948082526911 0  2.5625 -1 0  -1 -3.8125 0  -1 1.9375 0  5.0625 1 0  -1 -1.9375 0  1 5.6875 0  1 -5.6875 0  -1.9375 -1 0  -1 -2.5625 0  -1 3.1875 0  1 -3.1875 0  1 -2.5625 0  1 2.5625 0  1 3.1875 0  -5.0625 -1 0  -1 -1.3125 0  1.3125 -1 0  -1 1.3125 0  -1 3.8125 0  -1 4.4375 0  -4.4375 1 0  4.4375 -1 0  4.4375 1 0  -1.3125 1 0  1 4.4375 0  1 -4.4375 0  -1 -5.0625 0  -1 -4.4375 0  -3.1875 1 0  2.5625 1 0  1 -1.9375 0  1 -1.3125 0  5.6875 1 0  1 3.8125 0  3.1875 1 0  -3.1875 -1 0  1 -5.0625 0  1.35138038998199 0.6675097549271188 0  -0.465625 0.986328125 0  1.435958105992309 0.2563920171199723 0  1.915914614192913 -0.145782394639918 0  -0.8764440609469509 -0.5746869313612541 0  5.355194559946098 0.01566259380337612 0  -5.69333042954964 -0.5242868300459975 0  1.78125 -0.7320750794491524 0  0.7320750794491525 -3.96875 0  -0.3959075548864684 5.166422468926435 0  -4.770522389068053 -0.2123670725088856 0  -4.714160156249999 -0.69234375 0  -4.273484403713342 -0.278160994327167 0  0.9642590244517505 0.08196089404241463 0  0.3500261717645397 -4.727285205957206 0  0.6740868006020392 -4.765147848348443 0  0.6797550207247084 -1.089747806381148 0  -5.186479934354063 0.3046329157552757 0  -5.263288238215326 -0.3369092276308425 0  -2.433484016245305 0.5442571297016638 0  0.1707808983307866 -3.82363304980935 0  -0.1554012991031027 3.867535742674252 0  4.855508096805579 -0.2283975605264581 0  3.644517238097614 0.5646428152488787 0  0.05699603874439441 -0.6452791208413911 0  -0.3550018917972689 -0.5695324323732931 0  0.6
[...]
<PointData  Vectors="u"> 
<DataArray  type="Float64"  Name="u"  NumberOfComponents="3" format="ascii">0.0000000000000000e+00 0.0000000000000000e+00 0.0000000000000000e+00  0.0000000000000000e+00 0.0000000000000000e+00 0.0000000000000000e+00  0.0000000000000000e+00 0.0000000000000000e+00 0.0000000000000000e+00  0.0000000000000000e+00 0.0000000000000000e+00 0.0000000000000000e+00  0.0000000000000000e+00 0.0000000000000000e+00 0.0000000000000000e+00  0.0000000000000000e+00 0.0000000000000000e+00 0.0000000000000000e+00  0.0000000000000000e+00 0.0000000000000000e+00 0.0000000000000000e+00  0.0000000000000000e+00 0.0000000000000000e+00 0.0000000000000000e+00  0.0000000000000000e+00 0.0000000000000000e+00 0.0000000000000000e+00  0.0000000000000000e+00 0.0000000000000000e+00 0.0000000000000000e+00  0.0000000000000000e+00 0.0000000000000000e+00 0.0000000000000000e+00  0.0000000000000000e+00 0.0000000000000000e+00 0.0000000000000000e+00  0.0000000000000000e+00 0.0000000000000000e+00 0.0000000000000000e+00  0.0000000000000000e+00 0.0000000000000000e+00 0.0000000000000000e+00  0.0000000000000000e+00 0.0000000000000000e+00 0.0000000000000000e+00  0.0000000000000000e+00 0.0000000000000000e+00 0.0000000000000000e+00  0.0000000000000000e+00 0.0000000000000000e+00 0.0000000000000000e+00  0.0000000000000000e+00 0.0000000000000000e+00 0.0000000000000000e+00  0.0000000000000000e+00 0.0000000000000000e+00 0.0000000000000000e+00  0.0000000000000000e+00 0.0000000000000000e+00 0.0000000000000000e+00  0.0000000000000000e+00 0.0000000000000000e+00 0.0000000000000000e+00  0.0000000000000000e+00 0.0000000000000000e+00 0.0000000000000000e+00  0.0000000000000000e+00 0.0000000000000000e+00 0.0000000000000000e+00  0.0000000000000000e+00 0.0000000000000000e+00 0.0000000000000000e+00  0.0000000000000000e+00 0.0000000000000000e+00 0.0000000000000000e+00  0.0000000000000000e+00 0.0000000000000000e+00 0.0000000000000000e+00  0.0000000000000000e+00 0.0000000000000000e+00 0.0000000000000000e+00  0.0000000000000000e+00 0.0000000000000000e+00 0.0000000000000000e+00  0.0000000000000000e+00 0.0000000000000000e+00 0.0000000000000000e+00  0.0000000000000000e+00 0.0000000000000000e+00 0.0000000000000000e+00  0.0000000000000000e+00 0.0000000000000000e+00 0.0000000000000000e+00  0.0000000000000000e+00 0.0000000000000000e+00 0.0000000000000000e+00  0.0000000000000000e+00 0.0000000000000000e+00 0.0000000000000000e+00  0.0000000000000000e+00 0.0000000000000000e+00 0.0000000000000000e+00  0.0000000000000000e+00 0.0000000000000000e+00 0.0000000000000000e+00  0.0000000000000000e+00 0.0000000000000000e+00 0.0000000000000000e+00  -1.9978534279730927e-04 9.3570760790692652e-05 0.0000000000000000e+00  4.6121717671672904e-02 -1.1129434367310153e-05 0.0000000000000000e+00  4.4018956734351175e-02 6.7280107056102420e-05 0.0000000000000000e+00  4.6173254791697711e-02 3.0210626843356295e-06 0.0000000000000000e+00  4.6216644924137580e-02 3.3996791777178643e-05 0.0000000000000000e+00  1.1380276242733728e-05 4.6101797002652996e-02 0.0000000000000000e+00  -4.6035470199264288e-02 4.2063873279044591e-05 0.0000000000000000e+00  3.6247276386935589e-05 4.6053667130510172e-02 0.0000000000000000e+00  -4.4110193791582798e-02 1.1402094880765774e-04 0.0000000000000000e+00  7.7516563764356112e-06 -4.6075963040038130e-02 0.0000000000000000e+00  -2.1983357402366599e-05 -4.3911715679868089e-02 0.0000000000000000e+00  3.8960176311071896e-05 4.3861220564213967e-02 0.0000000000000000e+00  3.5902984595466874e-05 4.6071678453235142e-02 0.0000000000000000e+00  3.7441057129968443e-05 -4.6070807039720808e-02 0.0000000000000000e+00  6.1195799146976864e-05 -4.6131111418256585e-02 0.0000000000000000e+00  -4.6184429840577496e-02 -1.4483309528337279e-05 0.0000000000000000e+00  -4.6141581464036845e-02 -4.2826175719043292e-05 0.0000000000000000e+00  -5.6211604355762328e-05 4.6185984421959855e-02 0.0000000000000000e+00  4.6119585070778922e-02 -5.6844156863965949e-05 0.0000000000000000e+00  -7.2111778381475040e-05 -4.5916479975126573e-02 0.0000000000000000e+00  -4.6031957318028317e-02 -5.5348003441437354e-05 0.0000000000000000e+00  -2.9817445858392570e-02 -6.2196803076948739e-03 0.0000000000000000e+00  5.9643261440059199e-03 -2.9331416809601968e-02 0.0000000000000000e+00  2.9239010699578887e-02 6.1511670873186392e-03 0.0000000000000000e+00  6.2034512397638073e-03 2.9379839914643272e-02 0.0000000000000000e+00  0.0000000000000000e+00 0.0000000000000000e+00 0.0000000000000000e+00  0.0000000000000000e+00 0.0000000000000000e+00 0.0000000000000000e+00  0.0000000000000000e+00 0.0000000000000000e+00 0.0000000000000000e+00  0.0000000000000000e+00 0.0000000000000000e+00 0.0000000000000000e+00  -2.0556361269239522e-02 1.7291879131644018e-02 0.0000000000000000e+00  0.0000000000000000e+00 0.0000000000000000e+00 0.0000000000000000e+00  0.0000000000000000e+00 0.0000000000000000e+00 0.0000000000000000e+00  0.0000000000000000e+00 0.0000000000000000e+00 0.0000000000000000e+00  6.1651587490272545e-05 -4.3959170338107222e-02 0.0000000000000000e+00  0.0000000000000000e+00 0.0000000000000000e+00 0.0000000000000000e+00  -4.5964360310714047e-02 -3.2902560265405434e-07 0.0000000000000000e+00  -4.6125925371130388e-02 5.9178990090550183e-05 0.0000000000000000e+00  -4.6013727924256446e-02 9.6302540207981918e-06 0.0000000000000000e+00  0.0000000000000000e+00 0.0000000000000000e+00 0.0000000000000000e+00  0.0000000000000000e+00 0.0000000000000000e+00 0.0000000000000000e+00  2.4504760057282213e-05 4.6046098833954004e-02 0.0000000000000000e+00  -7.0298559062708017e-06 4.6125189979798385e-02 0.0000000000000000e+00  0.0000000000000000e+00 0.0000000000000000e+00 0.0000000000000000e+00  0.0000000000000000e+00 0.0000000000000000e+00 0.0000000000000000e+00  2.2375188776670109e-04 4.5797512735912357e-02 0.0000000000000000e+00  -3.4326896705121968e-04 4.5903517676753908e-02 0.0000000000000000e+00  0.0000000000000000e+00 0.0000000000000000e+00 0.0000000000000000e+00  0.0000000000000000e+00 0.0000000000000000e+00 0.0000000000000000e+00  4.7683362598758504e-05 -4.6002920258964769e-02 0.0000000000000000e+00  1.5265444322314568e-05 -4.6085491662083658e-02 0.0000000000000000e+00  0.0000000000000000e+00 0.0000000000000000e+00 0.0000000000000000e+00  -2.0272012681560363e-04 -4.5901101052894806e-02 0.0000000000000000e+00  4.2261566703538791e-04 -4.5917163287649491e-02 0.0000000000000000e+00  0.0000000000000000e+00 0.0000000000000000e+00 0.0000000000000000e+00  0.0000000000000000e+00 0.0000000000000000e+00 0.0000000000000000e+00  0.0000000000000000e+00 0.0000000000000000e+00 0.0000000000000000e+00  0.0000000000000000e+00 0.0000000000000000e+00 0.0000000000000000e+00  0.0000000000000000e+00 0.0000000000000000e+00 0.0000000000000000e+00  0.0000000000000000e+00 0.0000000000000000e+00 0.0000000000000000e+00  -4.5763358383961172e-02 3.1059988708078220e-04 0.0000000000000000e+00  -4.5867370645673679e-02 -3.0396352753759318e-04 0.0000000000000000e+00  0.0000000000000000e+00 0.0000000000000000e+00 0.0000000000000000e+00  0.0000000000000000e+00 0.0000000000000000e+00 0.0000000000000000e+00  0.0000000000000000e+00 0.0000000000000000e+00 0.0000000000000000e+00  0.0000000000000000e+00 0.0000000000000000e+00 0.0000000000000000e+00  0.0000000000000000e+00 0.0000000000000000e+00 0.0000000000000000e+00  0.0000000000000000e+00 0.0000000000000000e+00 0.0000000000000000e+00  4.5868925084842686e-02 3.3180236141620943e-04 0.0000000000000000e+00  4.5959721309877438e-02 -2.7518318997380196e-04 0.0000000000000000e+00  0.0000000000000000e+00 0.0000000000000000e+00 0.0000000000000000e+00  0.0000000000000000e+00 0.0000000000000000e+00 0.0000000000000000e+00  0.0000000000000000e+00 0.0000000000000000e+00 0.0000000000000000e+00  4.5857987844557552e-02 7.7997929958992793e-05 0.0000000000000000e+00  4.6119232522538432e-02 2.2090623357951134e-05 0.0000000000000000e+00  0.0000000000000000e+00 0.0000000000000000e+00 0.0000000000000000e+00  0.0000000000000000e+00 0.0000000000000000e+00 0.0000000000000000e+00  -8.5716228108059251e-03 3.8744952004600118e-02 0.0000000000000000e+00  3.9912389234972208e-02 -8.4527424945160679e-03 0.0000000000000000e+00  -7.9925061055700283e-03 -4.0311700551584721e-02 0.0000000000000000e+00  -4.0779497613526151e-02 7.5598508322768567e-03 0.0000000000000000e+00  4.2502746666160006e-05 -4.3817234903307148e-02 0.0000000000000000e+00  -3.1536342258646293e-06 -4.6112325386663454e-02 0.0000000000000000e+00  -4.6078560319778215e-02 -5.9587459000020267e-05 0.0000000000000000e+00  2.4358656816836959e-06 4.6032714823832158e-02 0.0000000000000000e+00  4.9233363373550834e-05 4.5959028402425259e-02 0.0000000000000000e+00  1.9456316925222591e-02 -1.2170687987641182e-02 0.0000000000000000e+00  4.4365858715494026e-02 6.2683773459966943e-03 0.0000000000000000e+00  3.2790639520483339e-05 4.3940514868359266e-02 0.0000000000000000e+00  -1.1635397230516011e-02 -1.9382285249471679e-02 0.0000000000000000e+00  -4.5926123444219223e-02 -1.4187201894705067e-05 0.0000000000000000e+00  -4.6143476449238351e-02 9.1180732085929046e-06 0.0000000000000000e+00  3.7688938687536536e-05 -4.5933919692892837e-02 0.0000000000000000e+00  4.6212696638606415e-02 3.1957040812374009e-06 0.0000000000000000e+00  4.5994297472492514e-02 5.0270766402921742e-05 0.0000000000000000e+00  4.6178919875287064e-02 6.1317513803892029e-06 0.0000000000000000e+00  4.3628663474655986e-02 -1.4633163954999187e-05 0.0000000000000000e+00  2.6774233609082380e-05 4.5850470231774826e-02 0.0000000000000000e+00  -3.7827394654027647e-05 4.6138024879071947e-02 0.0000000000000000e+00  -2.6359104665576000e-05 -4.6052511615700967e-02 0.0000000000000000e+00  6.8302074791100438e-03 4.5661546108692462e-02 0.0000000000000000e+00  -4.4861601129127807e-02 -6.3682489914807993e-03 0.0000000000000000e+00  6.2483404759274821e-03 -4.4408131866877448e-02 0.0000000000000000e+00  3.0729790883563911e-05 4.6041243795951918e-02 0.0000000000000000e+00  -2.2257233306278407e-05 -4.6159151984916783e-02 0.0000000000000000e+00  -4.6191470906934845e-02 -6.2220427715089770e-05 0.0000000000000000e+00  4.4040340738392643e-02 8.7914247853508061e-06 0.0000000000000000e+00  -4.6022335798815900e-02 -2.4569667050881329e-05 0.0000000000000000e+00  4.6066276934390152e-02 -5.0582822077869982e-05 0.0000000000000000e+00  -4.6084516695935038e-02 -1.2513790966934351e-04 0.0000000000000000e+00  4.0368902329212716e-06 -4.5943782233726742e-02 0.0000000000000000e+00  1.0109308020939793e-05 4.5964067695100266e-02 0.0000000000000000e+00  4.4577270335747973e-02 1.0899251486037588e-04 0.0000000000000000e+00  4.5843044748450273e-02 -2.4497233322157345e-03 0.0000000000000000e+00  4.6109730366981919e-02 1.0259212700514888e-05 0.0000000000000000e+00  2.2983484525204565e-06 4.6057595541964161e-02 0.0000000000000000e+00  -8.9174916874753377e-05 4.5928811232213228e-02 0.0000000000000000e+00  -4.6045635009957862e-02 -2.2483778967395946e-05 0.0000000000000000e+00  -4.5913031695899442e-02 2.4401354607543340e-03 0.0000000000000000e+00  -1.4977871262728056e-03 -4.5759234153059068e-02 0.0000000000000000e+00  -2.7359489886271747e-06 -4.5968851322489269e-02 0.0000000000000000e+00  -1.7067786026118477e-03 4.6083850213379469e-02 0.0000000000000000e+00  -4.5987865753854246e-02 9.6810545793451832e-05 0.0000000000000000e+00  8.3728553512812674e-05 -4.5981925586684728e-02 0.0000000000000000e+00  4.6017429542791415e-02 4.0518687776287736e-06 0.0000000000000000e+00  -4.4401545388719425e-02 -3.6566917050970266e-05 0.0000000000000000e+00  4.6127332751242214e-02 -4.1626475627133315e-06 0.0000000000000000e+00  4.4164760708440304e-02 -1.6107258221264328e-04 0.0000000000000000e+00  -4.4164977398723354e-02 -3.4355508481508058e-04 0.0000000000000000e+00  3.2685632294216269e-05 4.6003357496072005e-02 0.0000000000000000e+00  7.2711551022331959e-05 -4.5991256539566039e-02 0.0000000000000000e+00  4.3953290296279333e-02 1.2795039055889935e-03 0.0000000000000000e+00  1.3750321646707863e-03 4.5469990483984292e-02 0.0000000000000000e+00  5.2115153590092499e-05 4.6101169217355430e-02 0.0000000000000000e+00  4.4563796018307095e-02 5.1964797536127985e-05 0.0000000000000000e+00  -4.6164138242605797e-02 -8.7500464292380356e-06 0.0000000000000000e+00  -4.1191062607891529e-02 7.7615136602879624e-05 0.0000000000000000e+00  5.6416697378634146e-05 4.0170555160662140e-02 0.0000000000000000e+00  -1.0357464029799565e-05 -4.6184983184319718e-02 0.0000000000000000e+00  -1.7187169131166859e-04 -4.0776447495909682e-02 0.0000000000000000e+00  4.6188905807879918e-02 -3.1264912484291093e-05 0.0000000000000000e+00  4.0687559815572948e-02 9.1444868875998074e-05 0.0000000000000000e+00  2.4463132918372516e-05 4.1540394563256977e-02 0.0000000000000000e+00  -4.5229462344195538e-02 2.6105467384898669e-04 0.0000000000000000e+00  -1.3694551865469685e-04 -4.1483688011438695e-02 0.0000000000000000e+00  1.9001670935221099e-04 4.1871227596723258e-02 0.0000000000000000e+00  -6.4024436478313991e-05 -4.1837234128934489e-02 0.0000000000000000e+00  1.2802508203868645e-02 1.2566626544663251e-02 0.0000000000000000e+00  2.4372128938468969e-02 2.8148942710389157e-02 0.0000000000000000e+00  -3.2744989098419590e-03 1.6056375525082236e-02 0.0000000000000000e+00  1.6504281009990000e-03 -4.5505033560511672e-02 0.0000000000000000e+00  -4.5379479793366810e-02 -1.4843402336143367e-03 0.0000000000000000e+00  -2.2215128569593279e-05 4.5922428520880229e-02 0.0000000000000000e+00  2.3098724053355837e-06 -4.6006048272424854e-02 0.0000000000000000e+00  0.0000000000000000e+00 0.0000000000000000e+00 0.0000000000000000e+00  0.0000000000000000e+00 0.0000000000000000e+00 0.0000000000000000e+00  2.0505695531239220e-03 -3.9387373996812927e-02 0.0000000000000000e+00  -3.9430498138141680e-02 -1.3583527284387539e-03 0.0000000000000000e+00  -1.4960935139874216e-02 -3.8913645501189417e-03 0.0000000000000000e+00  2.4509181413803691e-02 -3.1948227480672879e-02 0.0000000000000000e+00  -3.9731332545466500e-02 -1.8959685620759184e-02 0.0000000000000000e+00  3.9293643055493287e-02 1.0301691842789272e-03 0.0000000000000000e+00  3.5617994091654599e-04 3.8896040501052102e-02 0.0000000000000000e+00  4.0010750875806769e-03 -1.4812365101919920e-02 0.0000000000000000e+00  0.0000000000000000e+00 0.0000000000000000e+00 0.0000000000000000e+00  4.2152335889100861e-02 -6.6394180231424611e-04 0.0000000000000000e+00  -4.0894568809851980e-03 -4.5900802824789651e-02 0.0000000000000000e+00  0.0000000000000000e+00 0.0000000000000000e+00 0.0000000000000000e+00  1.8030093706992211e-04 -4.2042307472080181e-02 0.0000000000000000e+00  0.0000000000000000e+00 0.0000000000000000e+00 0.0000000000000000e+00  2.4140563947775990e-04 4.2677332753596323e-02 0.0000000000000000e+00  -4.2824897845531056e-02 -3.6608916790517235e-04 0.0000000000000000e+00  0.0000000000000000e+00 0.0000000000000000e+00 0.0000000000000000e+00  0.0000000000000000e+00 0.0000000000000000e+00 0.0000000000000000e+00  0.0000000000000000e+00 0.0000000000000000e+00 0.0000000000000000e+00  2.9158343628566107e-05 -4.6089399351489362e-02 0.0000000000000000e+00  -7.1181287041403838e-05 4.6008254063075134e-02 0.0000000000000000e+00  4.6134991760619505e-02 1.2531187513131491e-05 0.0000000000000000e+00  4.5538271878688225e-02 -6.6324428735477301e-04 0.0000000000000000e+00  -4.5971060348542300e-02 -3.7309060821828685e-05 0.0000000000000000e+00  3.1188068975238255e-05 -4.6022584219806401e-02 0.0000000000000000e+00  6.2041173591016437e-05 4.6061874973191794e-02 0.0000000000000000e+00  -4.6195498642668434e-02 7.8768646061537742e-06 0.0000000000000000e+00  4.1302788936822113e-02 2.2851762524439876e-06 0.0000000000000000e+00  0.0000000000000000e+00 0.0000000000000000e+00 0.0000000000000000e+00  0.0000000000000000e+00 0.0000000000000000e+00 0.0000000000000000e+00  8.7559162571225274e-04 -4.2970178667288014e-02 0.0000000000000000e+00  -2.3416041229341446e-04 4.3058133518185847e-02 0.0000000000000000e+00  0.0000000000000000e+00 0.0000000000000000e+00 0.0000000000000000e+00  -4.4818042730323103e-02 5.4672774488260471e-04 0.0000000000000000e+00  0.0000000000000000e+00 0.0000000000000000e+00 0.0000000000000000e+00  0.0000000000000000e+00 0.0000000000000000e+00 0.0000000000000000e+00  4.4785030051915010e-02 1.5796715845772550e-04 0.0000000000000000e+00  -4.4449911560141664e-02 -5.0280416369256137e-05 0.0000000000000000e+00  0.0000000000000000e+00 0.0000000000000000e+00 0.0000000000000000e+00  0.0000000000000000e+00 0.0000000000000000e+00 0.0000000000000000e+00  -2.1539823285736628e-02 -3.3839389160598282e-02 0.0000000000000000e+00  -6.2131122555642682e-05 -4.6024639093133868e-02 0.0000000000000000e+00  -4.5916781178905942e-02 1.1415129636684350e-04 0.0000000000000000e+00  4.6051569846502639e-02 -5.5913986299983608e-06 0.0000000000000000e+00  4.0545137737206317e-05 4.6123959319818046e-02 0.0000000000000000e+00  -4.3047414934345420e-02 -1.9991336009554520e-04 0.0000000000000000e+00  2.3923393373971030e-04 4.2715763754897433e-02 0.0000000000000000e+00  -7.5578046644065658e-05 4.2107610714137926e-02 0.0000000000000000e+00  1.4188469887150231e-04 -4.2416097490951425e-02 0.0000000000000000e+00  5.3287785571486855e-05 -4.5959866166487139e-02 0.0000000000000000e+00  0.0000000000000000e+00 0.0000000000000000e+00 0.0000000000000000e+00  5.2540673152822893e-06 -4.5944485923761935e-02 0.0000000000000000e+00  -2.3996576182022701e-02 4.7482603041375544e-03 0.0000000000000000e+00  -3.5957724045475752e-02 2.4110152148464403e-02 0.0000000000000000e+00  4.1774150664252885e-02 1.9373426361444738e-02 0.0000000000000000e+00  -3.1298522053672859e-03 -4.3483218097533138e-02 0.0000000000000000e+00  1.2989972441832533e-02 -1.0505292544722606e-07 0.0000000000000000e+00  -4.3210317277966079e-02 -3.9162698690229194e-04 0.0000000000000000e+00  1.5682255529822653e-05 -4.3089777025719735e-02 0.0000000000000000e+00  -4.1301918727062331e-04 4.3181244124371874e-02 0.0000000000000000e+00  4.2798673822416193e-02 7.4059417946046346e-05 0.0000000000000000e+00  4.3105199922426424e-02 5.2092209370002952e-05 0.0000000000000000e+00  3.6236218254630150e-04 4.5484937306618192e-02 0.0000000000000000e+00  4.3442411754208189e-02 6.7779808778630120e-04 0.0000000000000000e+00  5.3223574802302152e-05 -4.6108000136013107e-02 0.0000000000000000e+00  3.8322530184798852e-05 4.6119122891935815e-02 0.0000000000000000e+00  4.5981425345868257e-02 3.1931213940528992e-05 0.0000000000000000e+00  -4.6072940408977130e-02 8.6600114312935817e-05 0.0000000000000000e+00  -4.2248367137707778e-02 3.7224996799677199e-04 0.0000000000000000e+00  -3.5474658936564360e-04 -4.5404184875301776e-02 0.0000000000000000e+00  -2.8936874908927994e-04 -4.1892723128594281e-02 0.0000000000000000e+00  -4.5435759793686060e-02 8.2251863206876294e-04 0.0000000000000000e+00  4.6157071238005512e-02 3.3057821429019753e-05 0.0000000000000000e+00  1.7922060976884524e-05 4.6100629957025505e-02 0.0000000000000000e+00  4.5430700159303755e-02 6.8731438178119689e-04 0.0000000000000000e+00  -5.4598692263645816e-03 2.8567460704431717e-02 0.0000000000000000e+00  0.0000000000000000e+00 0.0000000000000000e+00 0.0000000000000000e+00  0.0000000000000000e+00 0.0000000000000000e+00 0.0000000000000000e+00  0.0000000000000000e+00 0.0000000000000000e+00 0.0000000000000000e+00  -1.2847333244813208e-05 4.6134992358220099e-02 0.0000000000000000e+00  3.8423625528410375e-05 4.5960889024191612e-02 0.0000000000000000e+00  5.0031351283548442e-05 -4.6006508347658029e-02 0.0000000000000000e+00  -4.5993433627489165e-02 6.4630734512447971e-06 0.0000000000000000e+00  0.0000000000000000e+00 0.0000000000000000e+00 0.0000000000000000e+00  -1.9316866391262792e-05 -4.6093981548110161e-02 0.0000000000000000e+00  0.0000000000000000e+00 0.0000000000000000e+00 0.0000000000000000e+00  -4.1833867672207314e-02 -2.9367922396534036e-05 0.0000000000000000e+00  -7.2820798355584113e-05 -4.6034578577858781e-02 0.0000000000000000e+00  -3.4588623290787391e-03 4.2575598112035998e-02 0.0000000000000000e+00  -5.3534374023105676e-03 4.4875029880944800e-02 0.0000000000000000e+00  -4.6201429294241779e-02 6.2187860633080824e-06 0.