<?xml version="1.0"?>
<VTKFile type="UnstructuredGrid"  version="0.1"  >
<UnstructuredGrid>
<Piece  NumberOfPoints="778" NumberOfCells="1401">
<Points>
<DataArray  type="Float64"  NumberOfComponents="3"  format="ascii">1 -1 0  6 -1 0  6 1 0  1 1 0  1 6 0  -1 6 0  -1 1 0  -6 1 0  -6 -1 0  -1 -1 0  -1 -6 0  1 -6 0  1 3.5 0  -1 3.5 0  -1 -3.5 0  1 -3.5 0  3.5 -1 0  3.5 1 0  -3.5 -1 0  -3.5 1 0  -1 -2.25 0  1 -2.25 0  2.25 -1 0  2.25 1 0  -1 2.25 0  1 2.25 0  -1 4.75 0  1 4.75 0  -4.75 -1 0  -4.75 1 0  -2.25 1 0  -2.25 -1 0  1 -4.75 0  -1 -4.75 0  4.75 1 0  4.75 -1 0  0 0 0  -2.875 0 0  -1.625 0 0  -4.125 0 0  -6 0 0  0 2.875 0  2.875 0 0  0 6 0  1.625 0 0  0 -2.875 0  0 -1.625 0  0 1.625 0  0 4.125 0  0 -6 0  0 -4.125 0  4.125 0 0  6 0 0  -0.109375 5.0625 0  -5.0625 -0.109375 0  -0.109375 -5.0625 0  5.0625 0.109375 0  0.8125 -0.1875 0  -0.1875 -0.8125 0  -0.8125 0.1875 0  -0.1875 0.8125 0  1 5.375 0  -5.375 1 0  1 -5.375 0  5.375 -1 0  0.53515625 0.46484375 0  -5.375 -1 0  -1 5.375 0  -1 -5.375 0  -0.5 -6 0  5.375 1 0  6 0.5 0  3.5 0.3046875 0  3.43125 -0.34765625 0  2.875 -1 0  4.125 1 0  0.3046875 3.5 0  -0.34765625 3.56875 0  -1 4.125 0  1 4.125 0  -0.3046875 2.25 0  0.34765625 2.18125 0  1 1.625 0  -1 -1.625 0  -0.3046875 -3.5 0  0.34765625 -3.56875 0  1 -4.125 0  0.3046875 -2.25 0  -0.34765625 -2.18125 0  -1 -4.125 0  -1 -2.875 0  1 -2.875 0  1 -1.625 0  1.625 -1 0  1.625 1 0  2.25 0.3046875 0  2.18125 -0.34765625 0  4.125 -1 0  2.875 1 0  1 2.875 0  -1 1.625 0  -1 2.875 0  -4.125 -1 0  -2.25 0.3046875 0  -2.31875 -0.34765625 0  -2.875 -1 0  -1.625 1 0  -4.125 1 0  -3.5 0.3046875 0  -3.56875 -0.34765625 0  -1.625 -1 0  -2.875 1 0  0.380626321794301 1.06853329530276 0  -1.110819327731092 -0.3739495798319328 0  0.3739495798319328 -1.110819327731092 0  1.151210293219304 0.3991939332620648 0  -0.5 -4.4375 0  0.5 -4.4375 0  5.481553398058253 -0.3712833737864077 0  0.5 4.4375 0  0.5 6 0  -0.522503783594538 -0.3265648647465863 0  -1.3125 0.5 0  -0.5 6 0  0.3265648647465863 -0.522503783594538 0  4.4375 0.5 0  4.4375 -0.5 0  0.5 -6 0  -6 -0.5 0  -5.481553398058253 0.3712833737864077 0  -4.55 -0.4296875 0  -4.4375 0.5 0  -0.5 4.4375 0  0.4792930825242718 5.026881067961165 0  0.4792930825242718 -5.026881067961165 0  -0.5 1.3125 0  1.3125 -0.5 0  -0.5 -1.3125 0  0.25 5.518539952962044 0  0.2125133872612723 -5.500076563152851 0  4.969341874373811 -0.5152550785163683 0  -4.969341874373811 0.5152550785163683 0  3.927189744345589 -0.4712876597840069 0  -5.554036458333333 -0.25 0  5.554036458333333 0.25 0  -0.4690710616438356 -5.462756849315069 0  -0.4690710616438356 5.462756849315069 0  -6 0.5 0  -1.59556436210848 -0.5 0  -3.058421751829955 -0.5 0  -0.5 2.731982421875 0  0.5 2.691578248170045 0  2.691578248170045 -0.5 0  1.641211254104555 0.5 0  0.5 -1.768017578125 0  0.5 -3.058421751829955 0  0.5 1.699267578125 0  3.018017578125 0.5 0  -0.5 -3.018017578125 0  -2.731982421875 0.5 0  6 -0.5 0  -4.050017120925308 -0.5006099332648871 0  -3.940668202764977 0.5371363767281105 0  3.940668202764977 0.5371363767281105 0  0.4517449476047904 3.958458083832335 0  -0.4517449476047904 -3.958458083832335 0  -1.809331797235023 0.5371363767281105 0  -0.4517449476047904 1.791541916167665 0  -0.0546875 4.59375 0  -5.006445312499999 -0.58984375 0  4.605643203883496 -0.04725424757281554 0  4.90625 0.5546875 0  -0.5546875 4.90625 0  0.04725424757281554 -4.605643203883496 0  -0.586116118210531 -4.995821561900013 0  -4.603710222472543 0.04846236095466061 0  -3.1875 0.65234375 0  0.6163907621110913 3.147502300973589 0  2.5625 0.65234375 0  0.6163907621110913 -2.602497699026411 0  -0.637456713551384 3.189259902731882 0  -0.637456713551384 -2.560740097268118 0  -0.34765625 0.34765625 0  -0.639453125 0.708203125 0  0.089630126953125 0.437286376953125 0  -0.4238281249999999 -1.746875 0  1.746875 -0.4238281249999999 0  -0.4238281249999999 4.003125 0  0.4238281249999999 -4.003125 0  -2.5625 -1 0  3.1875 -1 0  -0.09375 -1.21875 0  1.21875 -0.09375 0  0.4020305405760241 -0.1120343241705621 0  -0.6280191027904287 -0.7577505545748082 0  0.90625 -0.59375 0  -1.205500904741459 0.03633725387965409 0  -0.02129048848213058 1.202028574265107 0  -0.1120343241705621 -0.4020305405760241 0  1 1.3125 0  -2.003587563743074 -0.6442361556699288 0  0.6640077663259718 -1.395873598614549 0  5.6875 -1 0  0.6308138580859101 -5.592151086468728 0  -5.6875 -1 0  0.6568032075915271 5.612942566073222 0  5.616530031741774 0.6612875396772174 0  -5.6875 1 0  1.9375 1 0  -1.3125 -1 0  0.1524679547155687 -3.232579139388032 0  0.1524679547155687 2.517420860611968 0  -3.232579139388032 -0.1524679547155687 0  -1.932320553757026 -0.252759244693845 0  2.517420860611968 -0.1524679547155687 0  -0.04776045819569434 -2.464949198504599 0  -0.2420369079104247 3.187693796852321 0  3.751304711039982 -0.1203080877045035 0  -5.397601941771943 -0.609026059866711 0  1.3125 1 0  1.9375 -1 0  -0.6946315101963667 -2.018229242739021 0  -0.6946315101963667 3.731770757260979 0  1 -3.8125 0  2.014364435550335 0.6166648446293641 0  -1 5.6875 0  -1 -5.6875 0  -2.653476149871182 -0.5942957192996303 0  3.096523850128818 -0.5942957192996303 0  1 1.9375 0  -3.8125 -1 0  0.586975531244212 -0.7975955463807081 0  -0.2946248980953088 -4.743710873809568 0  2.625453376770019 0.2814788818359375 0  -3.124546623229981 0.2814788818359375 0  -0.1204856417894853 5.631800603217465 0  5.253862011026742 0.6581468962876398 0  -0.65234375 2.108701557941197 0  0.65234375 3.641298442058803 0  -0.65234375 -3.641298442058803 0  -0.25 -5.744880569758637 0  -4.4375 -1 0  -0.3166212631734941 -2.713595940002554 0  0.6591479224207506 0.1324305912687024 0  0.8660781906552419 0.6468634238104103 0  -0.9887189158197679 0.6452930723873549 0  0.3149351927204296 -1.460971774996065 0  -0.3572852727880474 -0.009629022788047503 0  2.09375 -0.6866724363772454 0  0.6866724363772454 -3.65625 0  0.6866724363772454 2.09375 0  -3.65625 -0.6866724363772454 0  -3.5371337890625 0.65234375 0  -0.1389584113023952 1.944025352615082 0  -2.151744288472698 0.65234375 0  -0.1389584113023951 -3.805974647384918 0  0.1389584113023951 3.805974647384918 0  -2.578772109813904 0.1857224367977529 0  3.171227890186096 0.1857224367977529 0  3.360315647536819 0.65234375 0  0.1857224367977528 -1.921227890186096 0  0.65234375 -2.110315647536819 0  1.894016528727564 0.2415406141485869 0  -3.738232421875 0 0  0.2516875549238616 3.139069895099618 0  -1.913724396854074 0.2011142179916434 0  0.1669456568161915 0.7843410671359501 0  -2.5625 1 0  -1 -3.1875 0  -1 2.5625 0  0.1736601499778735 4.857955663330752 0  -0.1893536587212888 2.577300639071919 0  -0.1893536587212888 -3.172699360928081 0  3.852271904453858 0.206603749322895 0  -3.8125 1 0  -0.1250095034621793 -5.421707592768541 0  3.8125 -1 0  3.617304217264373 -0.6578427703661498 0  0.2630176195580202 -2.636558318495885 0  0.2674330357770522 1.399517071108871 0  0.631726413079416 1.339254523727593 0  4.700571879807737 0.2813704945051134 0  0.7143844363649634 -3.319538455208831 0  2.430461544791169 -0.7143844363649634 0  0.7143844363649634 2.430461544791169 0  -3.319538455208831 -0.7143844363649634 0  5.687045771608623 -0.6520598572553891 0  -5.687045771608623 0.6520598572553891 0  -1.15625 -0.7048248829733235 0  3.438284572973296 -0.01860298867862281 0  -0.03021088078697859 3.451572359862192 0  2.216682837011589 -0.02159585961918548 0  -2.191580885932936 -0.03126387444658879 0  0.1857410764408683 1.895679405349457 0  3.103473238297955 -0.253270943723272 0  -2.646526761702045 -0.253270943723272 0  -2.333137350671861 -0.6791984914172315 0  -1 5.0625 0  -0.6971235589909319 5.213002544375844 0  0.01618705363819947 2.225929180591695 0  0.01618705363819947 -3.524070819408305 0  0.5690054882403073 0.7951310720450595 0  -0.5764940424412852 -3.329579265180942 0  -0.5764940424412852 2.420420734819058 0  3.8125 1 0  -5.372163860234628 0.04365139563106807 0  5.164108319316826 -0.225040894204947 0  -5.361952437854323 0.6744012088984681 0  -5.0625 1 0  5.286835586913878 -0.6616705837083201 0  -5.692815197359722 0.1186699900166531 0  5.663425996156958 -0.07763197815533956 0  -0.9219866027132193 -0.1143045829323572 0  -1.394333629759332 -0.2233077430199216 0  0.09322478991596644 -0.9616596638655462 0  5.0625 -1 0  -0.14412109375 -1.92169189453125 0  -4.28125 -0.7212148987671345 0  0.2649796277366407 0.1735162902120744 0  -4.907855692236596 0.1868230509619793 0  -1.9375 1 0  1 5.0625 0  0.6915124486819284 -5.272938212550202 0  0.683483242673902 5.284948082526911 0  2.5625 -1 0  -1 -3.8125 0  -1 1.9375 0  5.0625 1 0  -1 -1.9375 0  1 5.6875 0  1 -5.6875 0  -1.9375 -1 0  -1 -2.5625 0  -1 3.1875 0  1 -3.1875 0  1 -2.5625 0  1 2.5625 0  1 3.1875 0  -5.0625 -1 0  -1 -1.3125 0  1.3125 -1 0  -1 1.3125 0  -1 3.8125 0  -1 4.4375 0  -4.4375 1 0  4.4375 -1 0  4.4375 1 0  -1.3125 1 0  1 4.4375 0  1 -4.4375 0  -1 -5.0625 0  -1 -4.4375 0  -3.1875 1 0  2.5625 1 0  1 -1.9375 0  1 -1.3125 0  5.6875 1 0  1 3.8125 0  3.1875 1 0  -3.1875 -1 0  1 -5.0625 0  1.35138038998199 0.6675097549271188 0  -0.465625 0.986328125 0  1.435958105992309 0.2563920171199723 0  1.915914614192913 -0.145782394639918 0  -0.8764440609469509 -0.5746869313612541 0  5.355194559946098 0.01566259380337612 0  -5.69333042954964 -0.5242868300459975 0  1.78125 -0.7320750794491524 0  0.7320750794491525 -3.96875 0  -0.3959075548864684 5.166422468926435 0  -4.770522389068053 -0.2123670725088856 0  -4.714160156249999 -0.69234375 0  -4.273484403713342 -0.278160994327167 0  0.9642590244517505 0.08196089404241463 0  0.3500261717645397 -4.727285205957206 0  0.6740868006020392 -4.765147848348443 0  0.6797550207247084 -1.089747806381148 0  -5.186479934354063 0.3046329157552757 0  -5.263288238215326 -0.3369092276308425 0  -2.433484016245305 0.5442571297016638 0  0.1707808983307866 -3.82363304980935 0  -0.1554012991031027 3.867535742674252 0  4.855508096805579 -0.2283975605264581 0  3.644517238097614 0.5646428152488787 0  0.05699603874439441 -0.6452791208413911 0  -0.3550018917972689 -0.5695324323732931 0  0.6
[...]
<PointData  Vectors="u"> 
<DataArray  type="Float64"  Name="u"  NumberOfComponents="3" format="ascii">0.0000000000000000e+00 0.0000000000000000e+00 0.0000000000000000e+00  0.0000000000000000e+00 0.0000000000000000e+00 0.0000000000000000e+00  0.0000000000000000e+00 0.0000000000000000e+00 0.0000000000000000e+00  0.0000000000000000e+00 0.0000000000000000e+00 0.0000000000000000e+00  0.0000000000000000e+00 0.0000000000000000e+00 0.0000000000000000e+00  0.0000000000000000e+00 0.0000000000000000e+00 0.0000000000000000e+00  0.0000000000000000e+00 0.0000000000000000e+00 0.0000000000000000e+00  0.0000000000000000e+00 0.0000000000000000e+00 0.0000000000000000e+00  0.0000000000000000e+00 0.0000000000000000e+00 0.0000000000000000e+00  0.0000000000000000e+00 0.0000000000000000e+00 0.0000000000000000e+00  0.0000000000000000e+00 0.0000000000000000e+00 0.0000000000000000e+00  0.0000000000000000e+00 0.0000000000000000e+00 0.0000000000000000e+00  0.0000000000000000e+00 0.0000000000000000e+00 0.0000000000000000e+00  0.0000000000000000e+00 0.0000000000000000e+00 0.0000000000000000e+00  0.0000000000000000e+00 0.0000000000000000e+00 0.0000000000000000e+00  0.0000000000000000e+00 0.0000000000000000e+00 0.0000000000000000e+00  0.0000000000000000e+00 0.0000000000000000e+00 0.0000000000000000e+00  0.0000000000000000e+00 0.0000000000000000e+00 0.0000000000000000e+00  0.0000000000000000e+00 0.0000000000000000e+00 0.0000000000000000e+00  0.0000000000000000e+00 0.0000000000000000e+00 0.0000000000000000e+00  0.0000000000000000e+00 0.0000000000000000e+00 0.0000000000000000e+00  0.0000000000000000e+00 0.0000000000000000e+00 0.0000000000000000e+00  0.0000000000000000e+00 0.0000000000000000e+00 0.0000000000000000e+00  0.0000000000000000e+00 0.0000000000000000e+00 0.0000000000000000e+00  0.0000000000000000e+00 0.0000000000000000e+00 0.0000000000000000e+00  0.0000000000000000e+00 0.0000000000000000e+00 0.0000000000000000e+00  0.0000000000000000e+00 0.0000000000000000e+00 0.0000000000000000e+00  0.0000000000000000e+00 0.0000000000000000e+00 0.0000000000000000e+00  0.0000000000000000e+00 0.0000000000000000e+00 0.0000000000000000e+00  0.0000000000000000e+00 0.0000000000000000e+00 0.0000000000000000e+00  0.0000000000000000e+00 0.0000000000000000e+00 0.0000000000000000e+00  0.0000000000000000e+00 0.0000000000000000e+00 0.0000000000000000e+00  0.0000000000000000e+00 0.0000000000000000e+00 0.0000000000000000e+00  0.0000000000000000e+00 0.0000000000000000e+00 0.0000000000000000e+00  0.0000000000000000e+00 0.0000000000000000e+00 0.0000000000000000e+00  0.0000000000000000e+00 0.0000000000000000e+00 0.0000000000000000e+00  -1.9326967706437986e-04 8.6285485917329219e-05 0.0000000000000000e+00  4.1809544873544401e-02 -1.0555979872052352e-05 0.0000000000000000e+00  3.9879645364211284e-02 6.8145607802562097e-05 0.0000000000000000e+00  4.1853816152087386e-02 2.4441411232531674e-06 0.0000000000000000e+00  4.1891531131089267e-02 3.1794955892529438e-05 0.0000000000000000e+00  1.0337006907662121e-05 4.1785378511876144e-02 0.0000000000000000e+00  -4.1727264612926585e-02 3.9770275289803113e-05 0.0000000000000000e+00  3.3771019526713951e-05 4.1748046751121072e-02 0.0000000000000000e+00  -3.9963885279710343e-02 1.0873279496898948e-04 0.0000000000000000e+00  7.9993946915573226e-06 -4.1765081679758786e-02 0.0000000000000000e+00  -2.5327036865465734e-05 -3.9760368821056796e-02 0.0000000000000000e+00  3.6474511659668034e-05 3.9717433458698763e-02 0.0000000000000000e+00  3.4523627866935175e-05 4.1763037773573285e-02 0.0000000000000000e+00  3.4905195254946304e-05 -4.1763368433519237e-02 0.0000000000000000e+00  5.6191818967998511e-05 -4.1817786056237614e-02 0.0000000000000000e+00  -4.1865611295928105e-02 -1.2111095367085207e-05 0.0000000000000000e+00  -4.1820523400896009e-02 -3.9252840472103579e-05 0.0000000000000000e+00  -5.0232377757747625e-05 4.1868018176408062e-02 0.0000000000000000e+00  4.1799409904143200e-02 -4.9442534864676745e-05 0.0000000000000000e+00  -6.5471529907416663e-05 -4.1599192074993567e-02 0.0000000000000000e+00  -4.1710785580458841e-02 -4.9621924097866233e-05 0.0000000000000000e+00  -2.6995902592552419e-02 -5.6540032028460007e-03 0.0000000000000000e+00  5.3849094277076152e-03 -2.6521084009106171e-02 0.0000000000000000e+00  2.6436591762583821e-02 5.6008643165258980e-03 0.0000000000000000e+00  5.6274353522772960e-03 2.6564522410419861e-02 0.0000000000000000e+00  0.0000000000000000e+00 0.0000000000000000e+00 0.0000000000000000e+00  0.0000000000000000e+00 0.0000000000000000e+00 0.0000000000000000e+00  0.0000000000000000e+00 0.0000000000000000e+00 0.0000000000000000e+00  0.0000000000000000e+00 0.0000000000000000e+00 0.0000000000000000e+00  -1.8614791688410567e-02 1.5630629615303929e-02 0.0000000000000000e+00  0.0000000000000000e+00 0.0000000000000000e+00 0.0000000000000000e+00  0.0000000000000000e+00 0.0000000000000000e+00 0.0000000000000000e+00  0.0000000000000000e+00 0.0000000000000000e+00 0.0000000000000000e+00  6.0733174235680540e-05 -3.9846768538063980e-02 0.0000000000000000e+00  0.0000000000000000e+00 0.0000000000000000e+00 0.0000000000000000e+00  -4.1673498235714312e-02 -5.7076895413431162e-07 0.0000000000000000e+00  -4.1753456069749173e-02 5.6543948823536576e-05 0.0000000000000000e+00  -4.1648878932014577e-02 5.0794713048196783e-06 0.0000000000000000e+00  0.0000000000000000e+00 0.0000000000000000e+00 0.0000000000000000e+00  0.0000000000000000e+00 0.0000000000000000e+00 0.0000000000000000e+00  2.1289671367963287e-05 4.1723303109130971e-02 0.0000000000000000e+00  -8.2093073688553863e-06 4.1784659887268205e-02 0.0000000000000000e+00  0.0000000000000000e+00 0.0000000000000000e+00 0.0000000000000000e+00  0.0000000000000000e+00 0.0000000000000000e+00 0.0000000000000000e+00  2.0393614686823033e-04 4.1469279066496889e-02 0.0000000000000000e+00  -3.1826103704876409e-04 4.1590714014765259e-02 0.0000000000000000e+00  0.0000000000000000e+00 0.0000000000000000e+00 0.0000000000000000e+00  0.0000000000000000e+00 0.0000000000000000e+00 0.0000000000000000e+00  4.8332380997378277e-05 -4.1663695336934203e-02 0.0000000000000000e+00  1.4059531247049483e-05 -4.1761237933708804e-02 0.0000000000000000e+00  0.0000000000000000e+00 0.0000000000000000e+00 0.0000000000000000e+00  -1.8617832074528464e-04 -4.1604030970783551e-02 0.0000000000000000e+00  3.9061390166071364e-04 -4.1586764753569837e-02 0.0000000000000000e+00  0.0000000000000000e+00 0.0000000000000000e+00 0.0000000000000000e+00  0.0000000000000000e+00 0.0000000000000000e+00 0.0000000000000000e+00  0.0000000000000000e+00 0.0000000000000000e+00 0.0000000000000000e+00  0.0000000000000000e+00 0.0000000000000000e+00 0.0000000000000000e+00  0.0000000000000000e+00 0.0000000000000000e+00 0.0000000000000000e+00  0.0000000000000000e+00 0.0000000000000000e+00 0.0000000000000000e+00  -4.1422186123252269e-02 2.9029021251674315e-04 0.0000000000000000e+00  -4.1558871765738893e-02 -2.7891456828504045e-04 0.0000000000000000e+00  0.0000000000000000e+00 0.0000000000000000e+00 0.0000000000000000e+00  0.0000000000000000e+00 0.0000000000000000e+00 0.0000000000000000e+00  0.0000000000000000e+00 0.0000000000000000e+00 0.0000000000000000e+00  0.0000000000000000e+00 0.0000000000000000e+00 0.0000000000000000e+00  0.0000000000000000e+00 0.0000000000000000e+00 0.0000000000000000e+00  0.0000000000000000e+00 0.0000000000000000e+00 0.0000000000000000e+00  4.1506108988893169e-02 3.1391534156919725e-04 0.0000000000000000e+00  4.1598088702162590e-02 -2.4882729320606492e-04 0.0000000000000000e+00  0.0000000000000000e+00 0.0000000000000000e+00 0.0000000000000000e+00  0.0000000000000000e+00 0.0000000000000000e+00 0.0000000000000000e+00  0.0000000000000000e+00 0.0000000000000000e+00 0.0000000000000000e+00  4.1505882055351398e-02 7.0362634519579269e-05 0.0000000000000000e+00  4.1792269849987726e-02 2.0225760093380781e-05 0.0000000000000000e+00  0.0000000000000000e+00 0.0000000000000000e+00 0.0000000000000000e+00  0.0000000000000000e+00 0.0000000000000000e+00 0.0000000000000000e+00  -7.7678974581850552e-03 3.5022493534350503e-02 0.0000000000000000e+00  3.6099594050629867e-02 -7.6987956644466015e-03 0.0000000000000000e+00  -7.2425005439881920e-03 -3.6473029496432600e-02 0.0000000000000000e+00  -3.6885065797316006e-02 6.8661993483005107e-03 0.0000000000000000e+00  4.2597052013939006e-05 -3.9684867925744105e-02 0.0000000000000000e+00  -4.0559336075397506e-06 -4.1777985318729234e-02 0.0000000000000000e+00  -4.1715006920083751e-02 -5.2164453747378677e-05 0.0000000000000000e+00  1.7386803444083445e-06 4.1708042276556431e-02 0.0000000000000000e+00  5.0529236354197990e-05 4.1611934645051585e-02 0.0000000000000000e+00  1.7607160611902872e-02 -1.1020621973703640e-02 0.0000000000000000e+00  4.0132993002273458e-02 5.6935376205744289e-03 0.0000000000000000e+00  3.5553503010475967e-05 3.9823620920368070e-02 0.0000000000000000e+00  -1.0497165138568333e-02 -1.7516192688087635e-02 0.0000000000000000e+00  -4.1563722772452828e-02 -3.6998559371992023e-06 0.0000000000000000e+00  -4.1808303841281626e-02 9.7345544750014409e-06 0.0000000000000000e+00  4.1751594889071171e-05 -4.1576222568324821e-02 0.0000000000000000e+00  4.1872257825966333e-02 5.1769257273360969e-06 0.0000000000000000e+00  4.1637076126238626e-02 4.7114066042280338e-05 0.0000000000000000e+00  4.1823514108121893e-02 6.0422190125854483e-06 0.0000000000000000e+00  3.9495421384923908e-02 -1.4022679476172822e-05 0.0000000000000000e+00  2.9808461123915199e-05 4.1518925773365190e-02 0.0000000000000000e+00  -3.7924347700895343e-05 4.1798235860731822e-02 0.0000000000000000e+00  -2.3591668919899291e-05 -4.1705638067354542e-02 0.0000000000000000e+00  6.2602399140337470e-03 4.1348976508805389e-02 0.0000000000000000e+00  -4.0591264491375838e-02 -5.8378019071739099e-03 0.0000000000000000e+00  5.6610030099710062e-03 -4.0171497319007980e-02 0.0000000000000000e+00  2.8520663508303931e-05 4.1719727202412953e-02 0.0000000000000000e+00  -2.0061428731424030e-05 -4.1845077528643727e-02 0.0000000000000000e+00  -4.1851679036848964e-02 -6.1405169733534166e-05 0.0000000000000000e+00  3.9829682889885407e-02 1.1249813170761550e-05 0.0000000000000000e+00  -4.1671958876226649e-02 -2.1987256827444638e-05 0.0000000000000000e+00  4.1710337695875406e-02 -3.9754180197224363e-05 0.0000000000000000e+00  -4.1758217976665554e-02 -1.1409389924674176e-04 0.0000000000000000e+00  4.6676243037374004e-06 -4.1613350815236295e-02 0.0000000000000000e+00  7.6969827160802849e-06 4.1620537073163134e-02 0.0000000000000000e+00  4.0350290862115078e-02 1.0219798336736910e-04 0.0000000000000000e+00  4.1518206706575023e-02 -2.2423696237844929e-03 0.0000000000000000e+00  4.1762004649674729e-02 7.4518624483576985e-06 0.0000000000000000e+00  5.9419804774563020e-06 4.1712919661736868e-02 0.0000000000000000e+00  -8.4894142976010308e-05 4.1583931467605334e-02 0.0000000000000000e+00  -4.1702260370800798e-02 -1.9423468927157663e-05 0.0000000000000000e+00  -4.1579198678316609e-02 2.2447647793806310e-03 0.0000000000000000e+00  -1.3996493578701491e-03 -4.1455799642944491e-02 0.0000000000000000e+00  1.5276705866734456e-06 -4.1613519347992456e-02 0.0000000000000000e+00  -1.5824578651390169e-03 4.1757241642549764e-02 0.0000000000000000e+00  -4.1675853918395636e-02 9.2946553613506425e-05 0.0000000000000000e+00  7.2934539323114166e-05 -4.1646018998536476e-02 0.0000000000000000e+00  4.1650555054487899e-02 4.4202231745366725e-06 0.0000000000000000e+00  -4.0160777648981121e-02 -2.8644259532098329e-05 0.0000000000000000e+00  4.1795861766100145e-02 -4.0786021514817814e-06 0.0000000000000000e+00  3.9956783803017475e-02 -1.4703215287443082e-04 0.0000000000000000e+00  -3.9963877870890521e-02 -3.1289016448007601e-04 0.0000000000000000e+00  3.3413104153174265e-05 4.1654766105746324e-02 0.0000000000000000e+00  6.6441989550190280e-05 -4.1635570414646231e-02 0.0000000000000000e+00  3.9787998051565507e-02 1.1752783084076537e-03 0.0000000000000000e+00  1.2709035077866342e-03 4.1175551269304084e-02 0.0000000000000000e+00  4.8502074498282195e-05 4.1787170295658947e-02 0.0000000000000000e+00  4.0312477147823343e-02 3.7297713161298976e-05 0.0000000000000000e+00  -4.1845468336226842e-02 -8.7478340008461190e-06 0.0000000000000000e+00  -3.7085261159832350e-02 7.3352240767214446e-05 0.0000000000000000e+00  4.9934555806517137e-05 3.6098293701934271e-02 0.0000000000000000e+00  -9.0119861199204034e-06 -4.1864240754206423e-02 0.0000000000000000e+00  -1.5170279980770754e-04 -3.6674711074897511e-02 0.0000000000000000e+00  4.1865416584932959e-02 -2.7238043974199698e-05 0.0000000000000000e+00  3.6523755118403528e-02 7.8574342645230016e-05 0.0000000000000000e+00  1.8643807704709178e-05 3.7372770905483632e-02 0.0000000000000000e+00  -4.0910527559572231e-02 2.4196591294613548e-04 0.0000000000000000e+00  -1.1379513023073102e-04 -3.7325686287717062e-02 0.0000000000000000e+00  1.6721703472171324e-04 3.7626298768995106e-02 0.0000000000000000e+00  -5.0870391265955351e-05 -3.7521569970202076e-02 0.0000000000000000e+00  1.1573797712506204e-02 1.1337023844567605e-02 0.0000000000000000e+00  2.1992264189409191e-02 2.5440517127059629e-02 0.0000000000000000e+00  -2.9483541865250981e-03 1.4518052404669598e-02 0.0000000000000000e+00  1.5209282253611589e-03 -4.1206418305140956e-02 0.0000000000000000e+00  -4.1098926947522943e-02 -1.3634827684087594e-03 0.0000000000000000e+00  -2.0808479022341126e-05 4.1578162192662263e-02 0.0000000000000000e+00  4.2664151553622128e-06 -4.1654755864775773e-02 0.0000000000000000e+00  0.0000000000000000e+00 0.0000000000000000e+00 0.0000000000000000e+00  0.0000000000000000e+00 0.0000000000000000e+00 0.0000000000000000e+00  1.8677916821332652e-03 -3.5631361264343533e-02 0.0000000000000000e+00  -3.5699628644278954e-02 -1.2137122662514576e-03 0.0000000000000000e+00  -1.3531839869370557e-02 -3.5089122086555307e-03 0.0000000000000000e+00  2.2230979035981698e-02 -2.8907434753117418e-02 0.0000000000000000e+00  -3.5923240815429747e-02 -1.7247487388091811e-02 0.0000000000000000e+00  3.5589451204382290e-02 9.5574734853210938e-04 0.0000000000000000e+00  3.0785774612403504e-04 3.5204137388722412e-02 0.0000000000000000e+00  3.6093409641661960e-03 -1.3397645792802650e-02 0.0000000000000000e+00  0.0000000000000000e+00 0.0000000000000000e+00 0.0000000000000000e+00  3.7902167062505251e-02 -6.0300519111697521e-04 0.0000000000000000e+00  -3.8659624534491529e-03 -4.1543621584500090e-02 0.0000000000000000e+00  0.0000000000000000e+00 0.0000000000000000e+00 0.0000000000000000e+00  1.6255680021741428e-04 -3.7773133771162710e-02 0.0000000000000000e+00  0.0000000000000000e+00 0.0000000000000000e+00 0.0000000000000000e+00  2.1573812359202413e-04 3.8392497727219914e-02 0.0000000000000000e+00  -3.8530018139519590e-02 -3.2734326247827497e-04 0.0000000000000000e+00  0.0000000000000000e+00 0.0000000000000000e+00 0.0000000000000000e+00  0.0000000000000000e+00 0.0000000000000000e+00 0.0000000000000000e+00  0.0000000000000000e+00 0.0000000000000000e+00 0.0000000000000000e+00  2.6057068887511375e-05 -4.1775089135764248e-02 0.0000000000000000e+00  -6.6726541942220956e-05 4.1698627356446610e-02 0.0000000000000000e+00  4.1819634518656744e-02 1.1207887851805916e-05 0.0000000000000000e+00  4.1251612623875909e-02 -6.1058252550993399e-04 0.0000000000000000e+00  -4.1667491634401810e-02 -3.4796764789277687e-05 0.0000000000000000e+00  2.8565291539722006e-05 -4.1711202950203821e-02 0.0000000000000000e+00  5.4643045641195194e-05 4.1718744321861990e-02 0.0000000000000000e+00  -4.1871377591340769e-02 7.3762102113777357e-06 0.0000000000000000e+00  3.7061176752939705e-02 1.6890325538836509e-06 0.0000000000000000e+00  0.0000000000000000e+00 0.0000000000000000e+00 0.0000000000000000e+00  0.0000000000000000e+00 0.0000000000000000e+00 0.0000000000000000e+00  8.0776920337657986e-04 -3.8634046017831034e-02 0.0000000000000000e+00  -2.0905368691909846e-04 3.8692246327831879e-02 0.0000000000000000e+00  0.0000000000000000e+00 0.0000000000000000e+00 0.0000000000000000e+00  -4.0538722642745557e-02 5.0801878810006790e-04 0.0000000000000000e+00  0.0000000000000000e+00 0.0000000000000000e+00 0.0000000000000000e+00  0.0000000000000000e+00 0.0000000000000000e+00 0.0000000000000000e+00  4.0542821791737620e-02 1.3794682307020581e-04 0.0000000000000000e+00  -4.0236837187789067e-02 -4.7379860686358794e-05 0.0000000000000000e+00  0.0000000000000000e+00 0.0000000000000000e+00 0.0000000000000000e+00  0.0000000000000000e+00 0.0000000000000000e+00 0.0000000000000000e+00  -1.9503670152246893e-02 -3.0604116374650634e-02 0.0000000000000000e+00  -5.1899847081576946e-05 -4.1650549488634732e-02 0.0000000000000000e+00  -4.1587541722412372e-02 1.0957148049908605e-04 0.0000000000000000e+00  4.1721819024719602e-02 -3.1768037125798827e-06 0.0000000000000000e+00  3.6376818710960577e-05 4.1810249875102366e-02 0.0000000000000000e+00  -3.8678388631039839e-02 -1.8392573919961716e-04 0.0000000000000000e+00  2.2107824638261053e-04 3.8349134106285876e-02 0.0000000000000000e+00  -5.8630158692226839e-05 3.7855663700351115e-02 0.0000000000000000e+00  1.2646586876752708e-04 -3.8086970218984169e-02 0.0000000000000000e+00  4.7628836363309628e-05 -4.1620788243017418e-02 0.0000000000000000e+00  0.0000000000000000e+00 0.0000000000000000e+00 0.0000000000000000e+00  4.9272785436751691e-06 -4.1592261169041571e-02 0.0000000000000000e+00  -2.1678485689917110e-02 4.3152714577405146e-03 0.0000000000000000e+00  -3.2529824388621162e-02 2.1841217465570644e-02 0.0000000000000000e+00  3.7763573859483784e-02 1.7565744766075898e-02 0.0000000000000000e+00  -2.8775427135614992e-03 -3.9372317724213166e-02 0.0000000000000000e+00  1.1733342876535472e-02 3.6295434977561461e-05 0.0000000000000000e+00  -3.8877257298893603e-02 -3.6137465061518621e-04 0.0000000000000000e+00  1.4306279378949525e-05 -3.8784753886816410e-02 0.0000000000000000e+00  -3.8127911871960619e-04 3.8849369418447244e-02 0.0000000000000000e+00  3.8492654615456631e-02 6.3806677309911721e-05 0.0000000000000000e+00  3.8709571684071582e-02 3.9539093936570452e-05 0.0000000000000000e+00  3.3170725227141327e-04 4.1216072381266504e-02 0.0000000000000000e+00  3.8981638585392303e-02 6.3022250136833872e-04 0.0000000000000000e+00  5.0248737790181763e-05 -4.1793808612513396e-02 0.0000000000000000e+00  3.5498770997650250e-05 4.1804348790056338e-02 0.0000000000000000e+00  4.1658563802718741e-02 3.2462906692442008e-05 0.0000000000000000e+00  -4.1765600702103875e-02 7.8312369022938907e-05 0.0000000000000000e+00  -3.7904900009665073e-02 3.2967312322437000e-04 0.0000000000000000e+00  -3.2312708775799768e-04 -4.1145586055709352e-02 0.0000000000000000e+00  -2.7210685712700304e-04 -3.7590744248898217e-02 0.0000000000000000e+00  -4.1166652783926776e-02 7.6192353341779557e-04 0.0000000000000000e+00  4.1838108807275766e-02 3.0888901148170976e-05 0.0000000000000000e+00  1.5655644342346746e-05 4.1769919517943351e-02 0.0000000000000000e+00  4.1165295703577680e-02 6.3546291351981540e-04 0.0000000000000000e+00  -4.9308172585491999e-03 2.5842021535755783e-02 0.0000000000000000e+00  0.0000000000000000e+00 0.0000000000000000e+00 0.0000000000000000e+00  0.0000000000000000e+00 0.0000000000000000e+00 0.0000000000000000e+00  0.0000000000000000e+00 0.0000000000000000e+00 0.0000000000000000e+00  -1.2274892477211583e-05 4.1821392844925066e-02 0.0000000000000000e+00  3.5139918954814700e-05 4.1652644181569339e-02 0.0000000000000000e+00  4.6289568182001546e-05 -4.1699039378148603e-02 0.0000000000000000e+00  -4.1650617376354657e-02 1.3143029425901727e-06 0.0000000000000000e+00  0.0000000000000000e+00 0.0000000000000000e+00 0.0000000000000000e+00  -1.6236808544012733e-05 -4.1782943347048053e-02 0.0000000000000000e+00  0.0000000000000000e+00 0.0000000000000000e+00 0.0000000000000000e+00  -3.7578864043414213e-02 -3.1396510612855507e-05 0.0000000000000000e+00  -6.8273091769076294e-05 -4.1712024943953145e-02 0.0000000000000000e+00  -3.1802267207218784e-03 3.8528032380459099e-02 0.0000000000000000e+00  -5.0187757628666584e-03 4.0647012811004676e-02 0.0000000000000000e+00  -4.1863508515166639e-02 5.7494679459756971e-06 0.00