<?xml version="1.0"?>
<VTKFile type="UnstructuredGrid"  version="0.1"  >
<UnstructuredGrid>
<Piece  NumberOfPoints="778" NumberOfCells="1401">
<Points>
<DataArray  type="Float64"  NumberOfComponents="3"  format="ascii">1 -1 0  6 -1 0  6 1 0  1 1 0  1 6 0  -1 6 0  -1 1 0  -6 1 0  -6 -1 0  -1 -1 0  -1 -6 0  1 -6 0  1 3.5 0  -1 3.5 0  -1 -3.5 0  1 -3.5 0  3.5 -1 0  3.5 1 0  -3.5 -1 0  -3.5 1 0  -1 -2.25 0  1 -2.25 0  2.25 -1 0  2.25 1 0  -1 2.25 0  1 2.25 0  -1 4.75 0  1 4.75 0  -4.75 -1 0  -4.75 1 0  -2.25 1 0  -2.25 -1 0  1 -4.75 0  -1 -4.75 0  4.75 1 0  4.75 -1 0  0 0 0  -2.875 0 0  -1.625 0 0  -4.125 0 0  -6 0 0  0 2.875 0  2.875 0 0  0 6 0  1.625 0 0  0 -2.875 0  0 -1.625 0  0 1.625 0  0 4.125 0  0 -6 0  0 -4.125 0  4.125 0 0  6 0 0  -0.109375 5.0625 0  -5.0625 -0.109375 0  -0.109375 -5.0625 0  5.0625 0.109375 0  0.8125 -0.1875 0  -0.1875 -0.8125 0  -0.8125 0.1875 0  -0.1875 0.8125 0  1 5.375 0  -5.375 1 0  1 -5.375 0  5.375 -1 0  0.53515625 0.46484375 0  -5.375 -1 0  -1 5.375 0  -1 -5.375 0  -0.5 -6 0  5.375 1 0  6 0.5 0  3.5 0.3046875 0  3.43125 -0.34765625 0  2.875 -1 0  4.125 1 0  0.3046875 3.5 0  -0.34765625 3.56875 0  -1 4.125 0  1 4.125 0  -0.3046875 2.25 0  0.34765625 2.18125 0  1 1.625 0  -1 -1.625 0  -0.3046875 -3.5 0  0.34765625 -3.56875 0  1 -4.125 0  0.3046875 -2.25 0  -0.34765625 -2.18125 0  -1 -4.125 0  -1 -2.875 0  1 -2.875 0  1 -1.625 0  1.625 -1 0  1.625 1 0  2.25 0.3046875 0  2.18125 -0.34765625 0  4.125 -1 0  2.875 1 0  1 2.875 0  -1 1.625 0  -1 2.875 0  -4.125 -1 0  -2.25 0.3046875 0  -2.31875 -0.34765625 0  -2.875 -1 0  -1.625 1 0  -4.125 1 0  -3.5 0.3046875 0  -3.56875 -0.34765625 0  -1.625 -1 0  -2.875 1 0  0.380626321794301 1.06853329530276 0  -1.110819327731092 -0.3739495798319328 0  0.3739495798319328 -1.110819327731092 0  1.151210293219304 0.3991939332620648 0  -0.5 -4.4375 0  0.5 -4.4375 0  5.481553398058253 -0.3712833737864077 0  0.5 4.4375 0  0.5 6 0  -0.522503783594538 -0.3265648647465863 0  -1.3125 0.5 0  -0.5 6 0  0.3265648647465863 -0.522503783594538 0  4.4375 0.5 0  4.4375 -0.5 0  0.5 -6 0  -6 -0.5 0  -5.481553398058253 0.3712833737864077 0  -4.55 -0.4296875 0  -4.4375 0.5 0  -0.5 4.4375 0  0.4792930825242718 5.026881067961165 0  0.4792930825242718 -5.026881067961165 0  -0.5 1.3125 0  1.3125 -0.5 0  -0.5 -1.3125 0  0.25 5.518539952962044 0  0.2125133872612723 -5.500076563152851 0  4.969341874373811 -0.5152550785163683 0  -4.969341874373811 0.5152550785163683 0  3.927189744345589 -0.4712876597840069 0  -5.554036458333333 -0.25 0  5.554036458333333 0.25 0  -0.4690710616438356 -5.462756849315069 0  -0.4690710616438356 5.462756849315069 0  -6 0.5 0  -1.59556436210848 -0.5 0  -3.058421751829955 -0.5 0  -0.5 2.731982421875 0  0.5 2.691578248170045 0  2.691578248170045 -0.5 0  1.641211254104555 0.5 0  0.5 -1.768017578125 0  0.5 -3.058421751829955 0  0.5 1.699267578125 0  3.018017578125 0.5 0  -0.5 -3.018017578125 0  -2.731982421875 0.5 0  6 -0.5 0  -4.050017120925308 -0.5006099332648871 0  -3.940668202764977 0.5371363767281105 0  3.940668202764977 0.5371363767281105 0  0.4517449476047904 3.958458083832335 0  -0.4517449476047904 -3.958458083832335 0  -1.809331797235023 0.5371363767281105 0  -0.4517449476047904 1.791541916167665 0  -0.0546875 4.59375 0  -5.006445312499999 -0.58984375 0  4.605643203883496 -0.04725424757281554 0  4.90625 0.5546875 0  -0.5546875 4.90625 0  0.04725424757281554 -4.605643203883496 0  -0.586116118210531 -4.995821561900013 0  -4.603710222472543 0.04846236095466061 0  -3.1875 0.65234375 0  0.6163907621110913 3.147502300973589 0  2.5625 0.65234375 0  0.6163907621110913 -2.602497699026411 0  -0.637456713551384 3.189259902731882 0  -0.637456713551384 -2.560740097268118 0  -0.34765625 0.34765625 0  -0.639453125 0.708203125 0  0.089630126953125 0.437286376953125 0  -0.4238281249999999 -1.746875 0  1.746875 -0.4238281249999999 0  -0.4238281249999999 4.003125 0  0.4238281249999999 -4.003125 0  -2.5625 -1 0  3.1875 -1 0  -0.09375 -1.21875 0  1.21875 -0.09375 0  0.4020305405760241 -0.1120343241705621 0  -0.6280191027904287 -0.7577505545748082 0  0.90625 -0.59375 0  -1.205500904741459 0.03633725387965409 0  -0.02129048848213058 1.202028574265107 0  -0.1120343241705621 -0.4020305405760241 0  1 1.3125 0  -2.003587563743074 -0.6442361556699288 0  0.6640077663259718 -1.395873598614549 0  5.6875 -1 0  0.6308138580859101 -5.592151086468728 0  -5.6875 -1 0  0.6568032075915271 5.612942566073222 0  5.616530031741774 0.6612875396772174 0  -5.6875 1 0  1.9375 1 0  -1.3125 -1 0  0.1524679547155687 -3.232579139388032 0  0.1524679547155687 2.517420860611968 0  -3.232579139388032 -0.1524679547155687 0  -1.932320553757026 -0.252759244693845 0  2.517420860611968 -0.1524679547155687 0  -0.04776045819569434 -2.464949198504599 0  -0.2420369079104247 3.187693796852321 0  3.751304711039982 -0.1203080877045035 0  -5.397601941771943 -0.609026059866711 0  1.3125 1 0  1.9375 -1 0  -0.6946315101963667 -2.018229242739021 0  -0.6946315101963667 3.731770757260979 0  1 -3.8125 0  2.014364435550335 0.6166648446293641 0  -1 5.6875 0  -1 -5.6875 0  -2.653476149871182 -0.5942957192996303 0  3.096523850128818 -0.5942957192996303 0  1 1.9375 0  -3.8125 -1 0  0.586975531244212 -0.7975955463807081 0  -0.2946248980953088 -4.743710873809568 0  2.625453376770019 0.2814788818359375 0  -3.124546623229981 0.2814788818359375 0  -0.1204856417894853 5.631800603217465 0  5.253862011026742 0.6581468962876398 0  -0.65234375 2.108701557941197 0  0.65234375 3.641298442058803 0  -0.65234375 -3.641298442058803 0  -0.25 -5.744880569758637 0  -4.4375 -1 0  -0.3166212631734941 -2.713595940002554 0  0.6591479224207506 0.1324305912687024 0  0.8660781906552419 0.6468634238104103 0  -0.9887189158197679 0.6452930723873549 0  0.3149351927204296 -1.460971774996065 0  -0.3572852727880474 -0.009629022788047503 0  2.09375 -0.6866724363772454 0  0.6866724363772454 -3.65625 0  0.6866724363772454 2.09375 0  -3.65625 -0.6866724363772454 0  -3.5371337890625 0.65234375 0  -0.1389584113023952 1.944025352615082 0  -2.151744288472698 0.65234375 0  -0.1389584113023951 -3.805974647384918 0  0.1389584113023951 3.805974647384918 0  -2.578772109813904 0.1857224367977529 0  3.171227890186096 0.1857224367977529 0  3.360315647536819 0.65234375 0  0.1857224367977528 -1.921227890186096 0  0.65234375 -2.110315647536819 0  1.894016528727564 0.2415406141485869 0  -3.738232421875 0 0  0.2516875549238616 3.139069895099618 0  -1.913724396854074 0.2011142179916434 0  0.1669456568161915 0.7843410671359501 0  -2.5625 1 0  -1 -3.1875 0  -1 2.5625 0  0.1736601499778735 4.857955663330752 0  -0.1893536587212888 2.577300639071919 0  -0.1893536587212888 -3.172699360928081 0  3.852271904453858 0.206603749322895 0  -3.8125 1 0  -0.1250095034621793 -5.421707592768541 0  3.8125 -1 0  3.617304217264373 -0.6578427703661498 0  0.2630176195580202 -2.636558318495885 0  0.2674330357770522 1.399517071108871 0  0.631726413079416 1.339254523727593 0  4.700571879807737 0.2813704945051134 0  0.7143844363649634 -3.319538455208831 0  2.430461544791169 -0.7143844363649634 0  0.7143844363649634 2.430461544791169 0  -3.319538455208831 -0.7143844363649634 0  5.687045771608623 -0.6520598572553891 0  -5.687045771608623 0.6520598572553891 0  -1.15625 -0.7048248829733235 0  3.438284572973296 -0.01860298867862281 0  -0.03021088078697859 3.451572359862192 0  2.216682837011589 -0.02159585961918548 0  -2.191580885932936 -0.03126387444658879 0  0.1857410764408683 1.895679405349457 0  3.103473238297955 -0.253270943723272 0  -2.646526761702045 -0.253270943723272 0  -2.333137350671861 -0.6791984914172315 0  -1 5.0625 0  -0.6971235589909319 5.213002544375844 0  0.01618705363819947 2.225929180591695 0  0.01618705363819947 -3.524070819408305 0  0.5690054882403073 0.7951310720450595 0  -0.5764940424412852 -3.329579265180942 0  -0.5764940424412852 2.420420734819058 0  3.8125 1 0  -5.372163860234628 0.04365139563106807 0  5.164108319316826 -0.225040894204947 0  -5.361952437854323 0.6744012088984681 0  -5.0625 1 0  5.286835586913878 -0.6616705837083201 0  -5.692815197359722 0.1186699900166531 0  5.663425996156958 -0.07763197815533956 0  -0.9219866027132193 -0.1143045829323572 0  -1.394333629759332 -0.2233077430199216 0  0.09322478991596644 -0.9616596638655462 0  5.0625 -1 0  -0.14412109375 -1.92169189453125 0  -4.28125 -0.7212148987671345 0  0.2649796277366407 0.1735162902120744 0  -4.907855692236596 0.1868230509619793 0  -1.9375 1 0  1 5.0625 0  0.6915124486819284 -5.272938212550202 0  0.683483242673902 5.284948082526911 0  2.5625 -1 0  -1 -3.8125 0  -1 1.9375 0  5.0625 1 0  -1 -1.9375 0  1 5.6875 0  1 -5.6875 0  -1.9375 -1 0  -1 -2.5625 0  -1 3.1875 0  1 -3.1875 0  1 -2.5625 0  1 2.5625 0  1 3.1875 0  -5.0625 -1 0  -1 -1.3125 0  1.3125 -1 0  -1 1.3125 0  -1 3.8125 0  -1 4.4375 0  -4.4375 1 0  4.4375 -1 0  4.4375 1 0  -1.3125 1 0  1 4.4375 0  1 -4.4375 0  -1 -5.0625 0  -1 -4.4375 0  -3.1875 1 0  2.5625 1 0  1 -1.9375 0  1 -1.3125 0  5.6875 1 0  1 3.8125 0  3.1875 1 0  -3.1875 -1 0  1 -5.0625 0  1.35138038998199 0.6675097549271188 0  -0.465625 0.986328125 0  1.435958105992309 0.2563920171199723 0  1.915914614192913 -0.145782394639918 0  -0.8764440609469509 -0.5746869313612541 0  5.355194559946098 0.01566259380337612 0  -5.69333042954964 -0.5242868300459975 0  1.78125 -0.7320750794491524 0  0.7320750794491525 -3.96875 0  -0.3959075548864684 5.166422468926435 0  -4.770522389068053 -0.2123670725088856 0  -4.714160156249999 -0.69234375 0  -4.273484403713342 -0.278160994327167 0  0.9642590244517505 0.08196089404241463 0  0.3500261717645397 -4.727285205957206 0  0.6740868006020392 -4.765147848348443 0  0.6797550207247084 -1.089747806381148 0  -5.186479934354063 0.3046329157552757 0  -5.263288238215326 -0.3369092276308425 0  -2.433484016245305 0.5442571297016638 0  0.1707808983307866 -3.82363304980935 0  -0.1554012991031027 3.867535742674252 0  4.855508096805579 -0.2283975605264581 0  3.644517238097614 0.5646428152488787 0  0.05699603874439441 -0.6452791208413911 0  -0.3550018917972689 -0.5695324323732931 0  0.6
[...]
<PointData  Vectors="u"> 
<DataArray  type="Float64"  Name="u"  NumberOfComponents="3" format="ascii">0.0000000000000000e+00 0.0000000000000000e+00 0.0000000000000000e+00  0.0000000000000000e+00 0.0000000000000000e+00 0.0000000000000000e+00  0.0000000000000000e+00 0.0000000000000000e+00 0.0000000000000000e+00  0.0000000000000000e+00 0.0000000000000000e+00 0.0000000000000000e+00  0.0000000000000000e+00 0.0000000000000000e+00 0.0000000000000000e+00  0.0000000000000000e+00 0.0000000000000000e+00 0.0000000000000000e+00  0.0000000000000000e+00 0.0000000000000000e+00 0.0000000000000000e+00  0.0000000000000000e+00 0.0000000000000000e+00 0.0000000000000000e+00  0.0000000000000000e+00 0.0000000000000000e+00 0.0000000000000000e+00  0.0000000000000000e+00 0.0000000000000000e+00 0.0000000000000000e+00  0.0000000000000000e+00 0.0000000000000000e+00 0.0000000000000000e+00  0.0000000000000000e+00 0.0000000000000000e+00 0.0000000000000000e+00  0.0000000000000000e+00 0.0000000000000000e+00 0.0000000000000000e+00  0.0000000000000000e+00 0.0000000000000000e+00 0.0000000000000000e+00  0.0000000000000000e+00 0.0000000000000000e+00 0.0000000000000000e+00  0.0000000000000000e+00 0.0000000000000000e+00 0.0000000000000000e+00  0.0000000000000000e+00 0.0000000000000000e+00 0.0000000000000000e+00  0.0000000000000000e+00 0.0000000000000000e+00 0.0000000000000000e+00  0.0000000000000000e+00 0.0000000000000000e+00 0.0000000000000000e+00  0.0000000000000000e+00 0.0000000000000000e+00 0.0000000000000000e+00  0.0000000000000000e+00 0.0000000000000000e+00 0.0000000000000000e+00  0.0000000000000000e+00 0.0000000000000000e+00 0.0000000000000000e+00  0.0000000000000000e+00 0.0000000000000000e+00 0.0000000000000000e+00  0.0000000000000000e+00 0.0000000000000000e+00 0.0000000000000000e+00  0.0000000000000000e+00 0.0000000000000000e+00 0.0000000000000000e+00  0.0000000000000000e+00 0.0000000000000000e+00 0.0000000000000000e+00  0.0000000000000000e+00 0.0000000000000000e+00 0.0000000000000000e+00  0.0000000000000000e+00 0.0000000000000000e+00 0.0000000000000000e+00  0.0000000000000000e+00 0.0000000000000000e+00 0.0000000000000000e+00  0.0000000000000000e+00 0.0000000000000000e+00 0.0000000000000000e+00  0.0000000000000000e+00 0.0000000000000000e+00 0.0000000000000000e+00  0.0000000000000000e+00 0.0000000000000000e+00 0.0000000000000000e+00  0.0000000000000000e+00 0.0000000000000000e+00 0.0000000000000000e+00  0.0000000000000000e+00 0.0000000000000000e+00 0.0000000000000000e+00  0.0000000000000000e+00 0.0000000000000000e+00 0.0000000000000000e+00  0.0000000000000000e+00 0.0000000000000000e+00 0.0000000000000000e+00  -1.7028703291510581e-04 6.6816923998942984e-05 0.0000000000000000e+00  3.2580275902683191e-02 -8.7452733726457910e-06 0.0000000000000000e+00  3.1039488097935226e-02 6.5914649058655325e-05 0.0000000000000000e+00  3.2609000643053200e-02 1.2740135743059406e-06 0.0000000000000000e+00  3.2638639962653739e-02 2.6310276366948214e-05 0.0000000000000000e+00  7.9910341938229019e-06 3.2549290160504216e-02 0.0000000000000000e+00  -3.2509888709730948e-02 3.3619178421727897e-05 0.0000000000000000e+00  2.7745913828420567e-05 3.2532958515454541e-02 0.0000000000000000e+00  -3.1105912309680475e-02 9.4353382742982798e-05 0.0000000000000000e+00  7.9256102836431988e-06 -3.2539942254399143e-02 0.0000000000000000e+00  -2.8390139245394292e-05 -3.0911083768732438e-02 0.0000000000000000e+00  3.0575960731457670e-05 3.0885698592164286e-02 0.0000000000000000e+00  2.9845307040265605e-05 3.2543176332666617e-02 0.0000000000000000e+00  2.9186432501113568e-05 -3.2541801854718659e-02 0.0000000000000000e+00  4.4697630555863013e-05 -3.2586595140000126e-02 0.0000000000000000e+00  -3.2621220082419022e-02 -7.9945940250974201e-06 0.0000000000000000e+00  -3.2578626766004648e-02 -3.1052268799312209e-05 0.0000000000000000e+00  -3.7598729381483401e-05 3.2625065976551862e-02 0.0000000000000000e+00  3.2557257047365097e-02 -3.5114405395797562e-05 0.0000000000000000e+00  -5.0579611170635617e-05 -3.2379618395699930e-02 0.0000000000000000e+00  -3.2476346498395627e-02 -3.7682012231482025e-05 0.0000000000000000e+00  -2.0989992519903647e-02 -4.4293080226070177e-03 0.0000000000000000e+00  4.1572786266126007e-03 -2.0565493070837059e-02 0.0000000000000000e+00  2.0496850906860604e-02 4.4097990581303042e-03 0.0000000000000000e+00  4.3890572514657545e-03 2.0597349803061354e-02 0.0000000000000000e+00  0.0000000000000000e+00 0.0000000000000000e+00 0.0000000000000000e+00  0.0000000000000000e+00 0.0000000000000000e+00 0.0000000000000000e+00  0.0000000000000000e+00 0.0000000000000000e+00 0.0000000000000000e+00  0.0000000000000000e+00 0.0000000000000000e+00 0.0000000000000000e+00  -1.4483332578303611e-02 1.2115478868310046e-02 0.0000000000000000e+00  0.0000000000000000e+00 0.0000000000000000e+00 0.0000000000000000e+00  0.0000000000000000e+00 0.0000000000000000e+00 0.0000000000000000e+00  0.0000000000000000e+00 0.0000000000000000e+00 0.0000000000000000e+00  5.4421900541931593e-05 -3.1055526284962581e-02 0.0000000000000000e+00  0.0000000000000000e+00 0.0000000000000000e+00 0.0000000000000000e+00  -3.2480718596574712e-02 -1.8884349198927318e-06 0.0000000000000000e+00  -3.2426419245510152e-02 4.8605338194289610e-05 0.0000000000000000e+00  -3.2339778603211834e-02 -1.9398032954767265e-06 0.0000000000000000e+00  0.0000000000000000e+00 0.0000000000000000e+00 0.0000000000000000e+00  0.0000000000000000e+00 0.0000000000000000e+00 0.0000000000000000e+00  1.5674500615813051e-05 3.2482272431043298e-02 0.0000000000000000e+00  -8.9644713156269676e-06 3.2508063943413483e-02 0.0000000000000000e+00  0.0000000000000000e+00 0.0000000000000000e+00 0.0000000000000000e+00  0.0000000000000000e+00 0.0000000000000000e+00 0.0000000000000000e+00  1.5929901695323402e-04 3.2234715762378983e-02 0.0000000000000000e+00  -2.5785579097354581e-04 3.2375009139108804e-02 0.0000000000000000e+00  0.0000000000000000e+00 0.0000000000000000e+00 0.0000000000000000e+00  0.0000000000000000e+00 0.0000000000000000e+00 0.0000000000000000e+00  4.5533101612423905e-05 -3.2397775050737279e-02 0.0000000000000000e+00  1.1178792818042750e-05 -3.2515144241157708e-02 0.0000000000000000e+00  0.0000000000000000e+00 0.0000000000000000e+00 0.0000000000000000e+00  -1.4793070682639134e-04 -3.2412076386281588e-02 0.0000000000000000e+00  3.1408626207131039e-04 -3.2341710413988332e-02 0.0000000000000000e+00  0.0000000000000000e+00 0.0000000000000000e+00 0.0000000000000000e+00  0.0000000000000000e+00 0.0000000000000000e+00 0.0000000000000000e+00  0.0000000000000000e+00 0.0000000000000000e+00 0.0000000000000000e+00  0.0000000000000000e+00 0.0000000000000000e+00 0.0000000000000000e+00  0.0000000000000000e+00 0.0000000000000000e+00 0.0000000000000000e+00  0.0000000000000000e+00 0.0000000000000000e+00 0.0000000000000000e+00  -3.2168590013365597e-02 2.4025695687206129e-04 0.0000000000000000e+00  -3.2351649315939805e-02 -2.2215567823765587e-04 0.0000000000000000e+00  0.0000000000000000e+00 0.0000000000000000e+00 0.0000000000000000e+00  0.0000000000000000e+00 0.0000000000000000e+00 0.0000000000000000e+00  0.0000000000000000e+00 0.0000000000000000e+00 0.0000000000000000e+00  0.0000000000000000e+00 0.0000000000000000e+00 0.0000000000000000e+00  0.0000000000000000e+00 0.0000000000000000e+00 0.0000000000000000e+00  0.0000000000000000e+00 0.0000000000000000e+00 0.0000000000000000e+00  3.2208500443514532e-02 2.6622771730235614e-04 0.0000000000000000e+00  3.2296935347619453e-02 -1.9230922553701099e-04 0.0000000000000000e+00  0.0000000000000000e+00 0.0000000000000000e+00 0.0000000000000000e+00  0.0000000000000000e+00 0.0000000000000000e+00 0.0000000000000000e+00  0.0000000000000000e+00 0.0000000000000000e+00 0.0000000000000000e+00  3.2229700838594874e-02 5.4106036104539795e-05 0.0000000000000000e+00  3.2541211389436185e-02 1.5665744141496449e-05 0.0000000000000000e+00  0.0000000000000000e+00 0.0000000000000000e+00 0.0000000000000000e+00  0.0000000000000000e+00 0.0000000000000000e+00 0.0000000000000000e+00  -6.0422046144524375e-03 2.7141172998543048e-02 0.0000000000000000e+00  2.7997897008013424e-02 -6.0584103629823614e-03 0.0000000000000000e+00  -5.6270977670229809e-03 -2.8314117201748579e-02 0.0000000000000000e+00  -2.8619978942783522e-02 5.3754417047153736e-03 0.0000000000000000e+00  3.9760282711938758e-05 -3.0883840271145453e-02 0.0000000000000000e+00  -5.4094583860178572e-06 -3.2506671800051727e-02 0.0000000000000000e+00  -3.2403775955089233e-02 -3.8094694063391414e-05 0.0000000000000000e+00  4.2212993351238882e-07 3.2454440000318781e-02 0.0000000000000000e+00  5.0174110907106399e-05 3.2328245193978110e-02 0.0000000000000000e+00  1.3682037971474395e-02 -8.5686106228488566e-03 0.0000000000000000e+00  3.1142983107376929e-02 4.4474177529021056e-03 0.0000000000000000e+00  3.5970332943621318e-05 3.1026722660783271e-02 0.0000000000000000e+00  -8.1040310017830037e-03 -1.3569938023105398e-02 0.0000000000000000e+00  -3.2257365517561774e-02 1.1813253162734356e-05 0.0000000000000000e+00  -3.2531407432203195e-02 1.0108788394263257e-05 0.0000000000000000e+00  4.6713548314501467e-05 -3.2274996727715430e-02 0.0000000000000000e+00  3.2585623145318661e-02 8.4104749867376190e-06 0.0000000000000000e+00  3.2339943222073883e-02 3.9416361339109516e-05 0.0000000000000000e+00  3.2513158678465742e-02 5.8692630623705489e-06 0.0000000000000000e+00  3.0699556221929204e-02 -1.2181422454744837e-05 0.0000000000000000e+00  3.2673120102964294e-05 3.2267230053288437e-02 0.0000000000000000e+00  -3.5448521125658702e-05 3.2515982229780888e-02 0.0000000000000000e+00  -1.7731084336143087e-05 -3.2414787995683071e-02 0.0000000000000000e+00  4.9758626580299215e-03 3.2134491357257440e-02 0.0000000000000000e+00  -3.1496699445033562e-02 -4.6461142617964359e-03 0.0000000000000000e+00  4.4029142079655519e-03 -3.1182311520011816e-02 0.0000000000000000e+00  2.3252127922840269e-05 3.2483940772208571e-02 0.0000000000000000e+00  -1.5035350626868982e-05 -3.2610139222936159e-02 0.0000000000000000e+00  -3.2562880290341982e-02 -5.6323053886448922e-05 0.0000000000000000e+00  3.0894222075253074e-02 1.4031154147151505e-05 0.0000000000000000e+00  -3.2374900940649549e-02 -1.6627281230033505e-05 0.0000000000000000e+00  3.2417098026385642e-02 -2.1349326882774157e-05 0.0000000000000000e+00  -3.2510961653304964e-02 -8.8697720446646739e-05 0.0000000000000000e+00  6.6730569179036198e-06 -3.2353996742158254e-02 0.0000000000000000e+00  4.5642587485205724e-06 3.2341478558440794e-02 0.0000000000000000e+00  3.1363412316425865e-02 8.5172047241542455e-05 0.0000000000000000e+00  3.2280769027542261e-02 -1.7815374778490255e-03 0.0000000000000000e+00  3.2464955880216688e-02 2.3661690290095360e-06 0.0000000000000000e+00  1.1523846791473914e-05 3.2420198969059247e-02 0.0000000000000000e+00  -7.2818725731494695e-05 3.2304061734532159e-02 0.0000000000000000e+00  -3.2413969307815094e-02 -1.3225099151595955e-05 0.0000000000000000e+00  -3.2327688870564364e-02 1.7994638877005472e-03 0.0000000000000000e+00  -1.1531175363287838e-03 -3.2264589469595484e-02 0.0000000000000000e+00  7.6524059923535570e-06 -3.2316232852208956e-02 0.0000000000000000e+00  -1.2872173358551499e-03 3.2504623593536480e-02 0.0000000000000000e+00  -3.2444988767528417e-02 8.0044393811569761e-05 0.0000000000000000e+00  5.2044849611856453e-05 -3.2375134722063305e-02 0.0000000000000000e+00  3.2334121636192877e-02 4.0248883408711368e-06 0.0000000000000000e+00  -3.1161221735616709e-02 -1.4917117759541523e-05 0.0000000000000000e+00  3.2524488915412174e-02 -3.8018935074435778e-06 0.0000000000000000e+00  3.1016308210877003e-02 -1.1563726715191741e-04 0.0000000000000000e+00  -3.1034519339510167e-02 -2.4359300879379494e-04 0.0000000000000000e+00  3.1989245121758681e-05 3.2362812176808413e-02 0.0000000000000000e+00  5.2386791109680562e-05 -3.2335807718526857e-02 0.0000000000000000e+00  3.0939083243849492e-02 9.3836822277835324e-04 0.0000000000000000e+00  1.0255441262011491e-03 3.2018911314083270e-02 0.0000000000000000e+00  3.9795639757116465e-05 3.2555708123731909e-02 0.0000000000000000e+00  3.1282726321341124e-02 1.4944969717933261e-05 0.0000000000000000e+00  -3.2603078054976559e-02 -7.6691682625214924e-06 0.0000000000000000e+00  -2.8510866072008707e-02 6.0968068758152637e-05 0.0000000000000000e+00  3.6721021817476112e-05 2.7639805239423196e-02 0.0000000000000000e+00  -6.3685038820048607e-06 -3.2616279214933971e-02 0.0000000000000000e+00  -1.1094917310721596e-04 -2.8132485463843858e-02 0.0000000000000000e+00  3.2610892040162584e-02 -1.9246203472032004e-05 0.0000000000000000e+00  2.7891706905488860e-02 5.5258650383660690e-05 0.0000000000000000e+00  7.5819178772343399e-06 2.8682663826107256e-02 0.0000000000000000e+00  -3.1737064105129012e-02 1.9569187328969466e-04 0.0000000000000000e+00  -7.2689625694331031e-05 -2.8651011726256333e-02 0.0000000000000000e+00  1.2194670553543514e-04 2.8791189078320907e-02 0.0000000000000000e+00  -2.7869842407834980e-05 -2.8584794301265339e-02 0.0000000000000000e+00  8.9714899536138971e-03 8.7490776162696127e-03 0.0000000000000000e+00  1.6979798576646003e-02 1.9713260187633409e-02 0.0000000000000000e+00  -2.2622962448895475e-03 1.1258457219042449e-02 0.0000000000000000e+00  1.2197364230210896e-03 -3.2037923990713021e-02 0.0000000000000000e+00  -3.1965531956932365e-02 -1.0901134736921044e-03 0.0000000000000000e+00  -1.6991138455327519e-05 3.2301307099061399e-02 0.0000000000000000e+00  6.9639303198908600e-06 -3.2362034564015180e-02 0.0000000000000000e+00  0.0000000000000000e+00 0.0000000000000000e+00 0.0000000000000000e+00  0.0000000000000000e+00 0.0000000000000000e+00 0.0000000000000000e+00  1.4667423303652751e-03 -2.7652213029182662e-02 0.0000000000000000e+00  -2.7751740039574826e-02 -9.1490144335856078e-04 0.0000000000000000e+00  -1.0499785159373436e-02 -2.7066265455618940e-03 0.0000000000000000e+00  1.7349019854480931e-02 -2.2439378846742918e-02 0.0000000000000000e+00  -2.7822538410422738e-02 -1.3545672691063267e-02 0.0000000000000000e+00  2.7686982645043004e-02 7.7954843570503750e-04 0.0000000000000000e+00  2.1168007682430387e-04 2.7354122208571054e-02 0.0000000000000000e+00  2.7841343497481234e-03 -1.0397585930509108e-02 0.0000000000000000e+00  0.0000000000000000e+00 0.0000000000000000e+00 0.0000000000000000e+00  2.9043931270341126e-02 -4.7106481553361025e-04 0.0000000000000000e+00  -3.2538435620776780e-03 -3.2290305015878436e-02 0.0000000000000000e+00  0.0000000000000000e+00 0.0000000000000000e+00 0.0000000000000000e+00  1.2351632372413122e-04 -2.8893581883288111e-02 0.0000000000000000e+00  0.0000000000000000e+00 0.0000000000000000e+00 0.0000000000000000e+00  1.6136140361862374e-04 2.9444815943646705e-02 0.0000000000000000e+00  -2.9553529666199081e-02 -2.4641739157499625e-04 0.0000000000000000e+00  0.0000000000000000e+00 0.0000000000000000e+00 0.0000000000000000e+00  0.0000000000000000e+00 0.0000000000000000e+00 0.0000000000000000e+00  0.0000000000000000e+00 0.0000000000000000e+00 0.0000000000000000e+00  1.9610983431404535e-05 -3.2541884897179969e-02 0.0000000000000000e+00  -5.5245197623946000e-05 3.2478567211146801e-02 0.0000000000000000e+00  3.2582843301394313e-02 8.3279592236754077e-06 0.0000000000000000e+00  3.2099494427228821e-02 -4.9013669078767301e-04 0.0000000000000000e+00  -3.2458290454236836e-02 -2.8784813589527404e-05 0.0000000000000000e+00  2.2976280517438510e-05 -3.2487996765166137e-02 0.0000000000000000e+00  3.9606348021618556e-05 3.2447656278480820e-02 0.0000000000000000e+00  -3.2616023790478711e-02 6.0142569412281616e-06 0.0000000000000000e+00  2.8282151330357705e-02 9.9017700994939560e-07 0.0000000000000000e+00  0.0000000000000000e+00 0.0000000000000000e+00 0.0000000000000000e+00  0.0000000000000000e+00 0.0000000000000000e+00 0.0000000000000000e+00  6.4837103028025380e-04 -2.9580619283800742e-02 0.0000000000000000e+00  -1.5705111465952567e-04 2.9587382641156974e-02 0.0000000000000000e+00  0.0000000000000000e+00 0.0000000000000000e+00 0.0000000000000000e+00  -3.1449469233656158e-02 4.1453312562402943e-04 0.0000000000000000e+00  0.0000000000000000e+00 0.0000000000000000e+00 0.0000000000000000e+00  0.0000000000000000e+00 0.0000000000000000e+00 0.0000000000000000e+00  3.1512486848413825e-02 9.8013843595820964e-05 0.0000000000000000e+00  -3.1276715492593102e-02 -3.8841152560712723e-05 0.0000000000000000e+00  0.0000000000000000e+00 0.0000000000000000e+00 0.0000000000000000e+00  0.0000000000000000e+00 0.0000000000000000e+00 0.0000000000000000e+00  -1.5167036217413610e-02 -2.3728930789200870e-02 0.0000000000000000e+00  -3.3175721737250646e-05 -3.2329342692614810e-02 0.0000000000000000e+00  -3.2343062910194557e-02 9.5169465930696474e-05 0.0000000000000000e+00  3.2470799555954402e-02 1.6807218257180343e-07 0.0000000000000000e+00  2.7677486322275734e-05 3.2577405140862756e-02 0.0000000000000000e+00  -2.9576715182153573e-02 -1.4634442984613700e-04 0.0000000000000000e+00  1.8083138559294747e-04 2.9270879175043035e-02 0.0000000000000000e+00  -3.1170251339372723e-05 2.8994326635516904e-02 0.0000000000000000e+00  9.5357273144283574e-05 -2.9090295054387507e-02 0.0000000000000000e+00  3.5902034087948213e-05 -3.2360113432503806e-02 0.0000000000000000e+00  0.0000000000000000e+00 0.0000000000000000e+00 0.0000000000000000e+00  4.4814677379267578e-06 -3.2311652206321505e-02 0.0000000000000000e+00  -1.6774863076379175e-02 3.3813148670214692e-03 0.0000000000000000e+00  -2.5254724219121307e-02 1.6984104337468643e-02 0.0000000000000000e+00  2.9274148906188308e-02 1.3673522511953914e-02 0.0000000000000000e+00  -2.3041305021197769e-03 -3.0618762321836544e-02 0.0000000000000000e+00  9.0769836773513853e-03 9.0179774026285020e-05 0.0000000000000000e+00  -2.9814466577564834e-02 -2.9171928457067303e-04 0.0000000000000000e+00  1.0924484025560850e-05 -2.9773885648181234e-02 0.0000000000000000e+00  -3.0771230983962187e-04 2.9791664161168550e-02 0.0000000000000000e+00  2.9498250459689807e-02 4.4138876222201895e-05 0.0000000000000000e+00  2.9568350783971308e-02 1.7680066164833984e-05 0.0000000000000000e+00  2.6306667626824627e-04 3.2091712687471775e-02 0.0000000000000000e+00  2.9721714898005562e-02 5.1353609476347049e-04 0.0000000000000000e+00  4.2167531576611659e-05 -3.2559819258455545e-02 0.0000000000000000e+00  2.8661308883296936e-05 3.2569766637113480e-02 0.0000000000000000e+00  3.2423935499610652e-02 3.1725003478975068e-05 0.0000000000000000e+00  -3.2544331382643676e-02 6.1170238570212006e-05 0.0000000000000000e+00  -2.8899065242276784e-02 2.4424584206078924e-04 0.0000000000000000e+00  -2.5458568673279524e-04 -3.2043450476580609e-02 0.0000000000000000e+00  -2.2888622649462598e-04 -2.8663722082632893e-02 0.0000000000000000e+00  -3.2043329634578052e-02 6.1935806887931119e-04 0.0000000000000000e+00  3.2595370832628853e-02 2.5140198063572582e-05 0.0000000000000000e+00  1.1003031017810448e-05 3.2515834929863228e-02 0.0000000000000000e+00  3.2049584247872083e-02 5.1411186751814904e-04 0.0000000000000000e+00  -3.8076929727825968e-03 2.0055853715964262e-02 0.0000000000000000e+00  0.0000000000000000e+00 0.0000000000000000e+00 0.0000000000000000e+00  0.0000000000000000e+00 0.0000000000000000e+00 0.0000000000000000e+00  0.0000000000000000e+00 0.0000000000000000e+00 0.0000000000000000e+00  -1.0551775838518671e-05 3.2588600511538023e-02 0.0000000000000000e+00  2.8295337254184333e-05 3.2441131854466836e-02 0.0000000000000000e+00  3.6897915269874996e-05 -3.2483637597681393e-02 0.0000000000000000e+00  -3.2384177666331754e-02 -6.0027251822541660e-06 0.0000000000000000e+00  0.0000000000000000e+00 0.0000000000000000e+00 0.0000000000000000e+00  -1.0827790879755910e-05 -3.2553116190875010e-02 0.0000000000000000e+00  0.0000000000000000e+00 0.0000000000000000e+00 0.0000000000000000e+00  -2.8731597578074235e-02 -3.1377366727761156e-05 0.0000000000000000e+00  -5.6020147819252914e-05 -3.2472575575772732e-02 0.0000000000000000e+00  -2.5493725663187335e-03 2.9927876582111098e-02 0.0000000000000000e+00  -4.1654334496650470e-03 3.1659097386822890e-02 0.0000000000000000e+00  -3.2589331182656986e-02 4.7578217269980206e-06 0.00