<?xml version="1.0"?>
<VTKFile type="UnstructuredGrid"  version="0.1"  >
<UnstructuredGrid>
<Piece  NumberOfPoints="778" NumberOfCells="1401">
<Points>
<DataArray  type="Float64"  NumberOfComponents="3"  format="ascii">1 -1 0  6 -1 0  6 1 0  1 1 0  1 6 0  -1 6 0  -1 1 0  -6 1 0  -6 -1 0  -1 -1 0  -1 -6 0  1 -6 0  1 3.5 0  -1 3.5 0  -1 -3.5 0  1 -3.5 0  3.5 -1 0  3.5 1 0  -3.5 -1 0  -3.5 1 0  -1 -2.25 0  1 -2.25 0  2.25 -1 0  2.25 1 0  -1 2.25 0  1 2.25 0  -1 4.75 0  1 4.75 0  -4.75 -1 0  -4.75 1 0  -2.25 1 0  -2.25 -1 0  1 -4.75 0  -1 -4.75 0  4.75 1 0  4.75 -1 0  0 0 0  -2.875 0 0  -1.625 0 0  -4.125 0 0  -6 0 0  0 2.875 0  2.875 0 0  0 6 0  1.625 0 0  0 -2.875 0  0 -1.625 0  0 1.625 0  0 4.125 0  0 -6 0  0 -4.125 0  4.125 0 0  6 0 0  -0.109375 5.0625 0  -5.0625 -0.109375 0  -0.109375 -5.0625 0  5.0625 0.109375 0  0.8125 -0.1875 0  -0.1875 -0.8125 0  -0.8125 0.1875 0  -0.1875 0.8125 0  1 5.375 0  -5.375 1 0  1 -5.375 0  5.375 -1 0  0.53515625 0.46484375 0  -5.375 -1 0  -1 5.375 0  -1 -5.375 0  -0.5 -6 0  5.375 1 0  6 0.5 0  3.5 0.3046875 0  3.43125 -0.34765625 0  2.875 -1 0  4.125 1 0  0.3046875 3.5 0  -0.34765625 3.56875 0  -1 4.125 0  1 4.125 0  -0.3046875 2.25 0  0.34765625 2.18125 0  1 1.625 0  -1 -1.625 0  -0.3046875 -3.5 0  0.34765625 -3.56875 0  1 -4.125 0  0.3046875 -2.25 0  -0.34765625 -2.18125 0  -1 -4.125 0  -1 -2.875 0  1 -2.875 0  1 -1.625 0  1.625 -1 0  1.625 1 0  2.25 0.3046875 0  2.18125 -0.34765625 0  4.125 -1 0  2.875 1 0  1 2.875 0  -1 1.625 0  -1 2.875 0  -4.125 -1 0  -2.25 0.3046875 0  -2.31875 -0.34765625 0  -2.875 -1 0  -1.625 1 0  -4.125 1 0  -3.5 0.3046875 0  -3.56875 -0.34765625 0  -1.625 -1 0  -2.875 1 0  0.380626321794301 1.06853329530276 0  -1.110819327731092 -0.3739495798319328 0  0.3739495798319328 -1.110819327731092 0  1.151210293219304 0.3991939332620648 0  -0.5 -4.4375 0  0.5 -4.4375 0  5.481553398058253 -0.3712833737864077 0  0.5 4.4375 0  0.5 6 0  -0.522503783594538 -0.3265648647465863 0  -1.3125 0.5 0  -0.5 6 0  0.3265648647465863 -0.522503783594538 0  4.4375 0.5 0  4.4375 -0.5 0  0.5 -6 0  -6 -0.5 0  -5.481553398058253 0.3712833737864077 0  -4.55 -0.4296875 0  -4.4375 0.5 0  -0.5 4.4375 0  0.4792930825242718 5.026881067961165 0  0.4792930825242718 -5.026881067961165 0  -0.5 1.3125 0  1.3125 -0.5 0  -0.5 -1.3125 0  0.25 5.518539952962044 0  0.2125133872612723 -5.500076563152851 0  4.969341874373811 -0.5152550785163683 0  -4.969341874373811 0.5152550785163683 0  3.927189744345589 -0.4712876597840069 0  -5.554036458333333 -0.25 0  5.554036458333333 0.25 0  -0.4690710616438356 -5.462756849315069 0  -0.4690710616438356 5.462756849315069 0  -6 0.5 0  -1.59556436210848 -0.5 0  -3.058421751829955 -0.5 0  -0.5 2.731982421875 0  0.5 2.691578248170045 0  2.691578248170045 -0.5 0  1.641211254104555 0.5 0  0.5 -1.768017578125 0  0.5 -3.058421751829955 0  0.5 1.699267578125 0  3.018017578125 0.5 0  -0.5 -3.018017578125 0  -2.731982421875 0.5 0  6 -0.5 0  -4.050017120925308 -0.5006099332648871 0  -3.940668202764977 0.5371363767281105 0  3.940668202764977 0.5371363767281105 0  0.4517449476047904 3.958458083832335 0  -0.4517449476047904 -3.958458083832335 0  -1.809331797235023 0.5371363767281105 0  -0.4517449476047904 1.791541916167665 0  -0.0546875 4.59375 0  -5.006445312499999 -0.58984375 0  4.605643203883496 -0.04725424757281554 0  4.90625 0.5546875 0  -0.5546875 4.90625 0  0.04725424757281554 -4.605643203883496 0  -0.586116118210531 -4.995821561900013 0  -4.603710222472543 0.04846236095466061 0  -3.1875 0.65234375 0  0.6163907621110913 3.147502300973589 0  2.5625 0.65234375 0  0.6163907621110913 -2.602497699026411 0  -0.637456713551384 3.189259902731882 0  -0.637456713551384 -2.560740097268118 0  -0.34765625 0.34765625 0  -0.639453125 0.708203125 0  0.089630126953125 0.437286376953125 0  -0.4238281249999999 -1.746875 0  1.746875 -0.4238281249999999 0  -0.4238281249999999 4.003125 0  0.4238281249999999 -4.003125 0  -2.5625 -1 0  3.1875 -1 0  -0.09375 -1.21875 0  1.21875 -0.09375 0  0.4020305405760241 -0.1120343241705621 0  -0.6280191027904287 -0.7577505545748082 0  0.90625 -0.59375 0  -1.205500904741459 0.03633725387965409 0  -0.02129048848213058 1.202028574265107 0  -0.1120343241705621 -0.4020305405760241 0  1 1.3125 0  -2.003587563743074 -0.6442361556699288 0  0.6640077663259718 -1.395873598614549 0  5.6875 -1 0  0.6308138580859101 -5.592151086468728 0  -5.6875 -1 0  0.6568032075915271 5.612942566073222 0  5.616530031741774 0.6612875396772174 0  -5.6875 1 0  1.9375 1 0  -1.3125 -1 0  0.1524679547155687 -3.232579139388032 0  0.1524679547155687 2.517420860611968 0  -3.232579139388032 -0.1524679547155687 0  -1.932320553757026 -0.252759244693845 0  2.517420860611968 -0.1524679547155687 0  -0.04776045819569434 -2.464949198504599 0  -0.2420369079104247 3.187693796852321 0  3.751304711039982 -0.1203080877045035 0  -5.397601941771943 -0.609026059866711 0  1.3125 1 0  1.9375 -1 0  -0.6946315101963667 -2.018229242739021 0  -0.6946315101963667 3.731770757260979 0  1 -3.8125 0  2.014364435550335 0.6166648446293641 0  -1 5.6875 0  -1 -5.6875 0  -2.653476149871182 -0.5942957192996303 0  3.096523850128818 -0.5942957192996303 0  1 1.9375 0  -3.8125 -1 0  0.586975531244212 -0.7975955463807081 0  -0.2946248980953088 -4.743710873809568 0  2.625453376770019 0.2814788818359375 0  -3.124546623229981 0.2814788818359375 0  -0.1204856417894853 5.631800603217465 0  5.253862011026742 0.6581468962876398 0  -0.65234375 2.108701557941197 0  0.65234375 3.641298442058803 0  -0.65234375 -3.641298442058803 0  -0.25 -5.744880569758637 0  -4.4375 -1 0  -0.3166212631734941 -2.713595940002554 0  0.6591479224207506 0.1324305912687024 0  0.8660781906552419 0.6468634238104103 0  -0.9887189158197679 0.6452930723873549 0  0.3149351927204296 -1.460971774996065 0  -0.3572852727880474 -0.009629022788047503 0  2.09375 -0.6866724363772454 0  0.6866724363772454 -3.65625 0  0.6866724363772454 2.09375 0  -3.65625 -0.6866724363772454 0  -3.5371337890625 0.65234375 0  -0.1389584113023952 1.944025352615082 0  -2.151744288472698 0.65234375 0  -0.1389584113023951 -3.805974647384918 0  0.1389584113023951 3.805974647384918 0  -2.578772109813904 0.1857224367977529 0  3.171227890186096 0.1857224367977529 0  3.360315647536819 0.65234375 0  0.1857224367977528 -1.921227890186096 0  0.65234375 -2.110315647536819 0  1.894016528727564 0.2415406141485869 0  -3.738232421875 0 0  0.2516875549238616 3.139069895099618 0  -1.913724396854074 0.2011142179916434 0  0.1669456568161915 0.7843410671359501 0  -2.5625 1 0  -1 -3.1875 0  -1 2.5625 0  0.1736601499778735 4.857955663330752 0  -0.1893536587212888 2.577300639071919 0  -0.1893536587212888 -3.172699360928081 0  3.852271904453858 0.206603749322895 0  -3.8125 1 0  -0.1250095034621793 -5.421707592768541 0  3.8125 -1 0  3.617304217264373 -0.6578427703661498 0  0.2630176195580202 -2.636558318495885 0  0.2674330357770522 1.399517071108871 0  0.631726413079416 1.339254523727593 0  4.700571879807737 0.2813704945051134 0  0.7143844363649634 -3.319538455208831 0  2.430461544791169 -0.7143844363649634 0  0.7143844363649634 2.430461544791169 0  -3.319538455208831 -0.7143844363649634 0  5.687045771608623 -0.6520598572553891 0  -5.687045771608623 0.6520598572553891 0  -1.15625 -0.7048248829733235 0  3.438284572973296 -0.01860298867862281 0  -0.03021088078697859 3.451572359862192 0  2.216682837011589 -0.02159585961918548 0  -2.191580885932936 -0.03126387444658879 0  0.1857410764408683 1.895679405349457 0  3.103473238297955 -0.253270943723272 0  -2.646526761702045 -0.253270943723272 0  -2.333137350671861 -0.6791984914172315 0  -1 5.0625 0  -0.6971235589909319 5.213002544375844 0  0.01618705363819947 2.225929180591695 0  0.01618705363819947 -3.524070819408305 0  0.5690054882403073 0.7951310720450595 0  -0.5764940424412852 -3.329579265180942 0  -0.5764940424412852 2.420420734819058 0  3.8125 1 0  -5.372163860234628 0.04365139563106807 0  5.164108319316826 -0.225040894204947 0  -5.361952437854323 0.6744012088984681 0  -5.0625 1 0  5.286835586913878 -0.6616705837083201 0  -5.692815197359722 0.1186699900166531 0  5.663425996156958 -0.07763197815533956 0  -0.9219866027132193 -0.1143045829323572 0  -1.394333629759332 -0.2233077430199216 0  0.09322478991596644 -0.9616596638655462 0  5.0625 -1 0  -0.14412109375 -1.92169189453125 0  -4.28125 -0.7212148987671345 0  0.2649796277366407 0.1735162902120744 0  -4.907855692236596 0.1868230509619793 0  -1.9375 1 0  1 5.0625 0  0.6915124486819284 -5.272938212550202 0  0.683483242673902 5.284948082526911 0  2.5625 -1 0  -1 -3.8125 0  -1 1.9375 0  5.0625 1 0  -1 -1.9375 0  1 5.6875 0  1 -5.6875 0  -1.9375 -1 0  -1 -2.5625 0  -1 3.1875 0  1 -3.1875 0  1 -2.5625 0  1 2.5625 0  1 3.1875 0  -5.0625 -1 0  -1 -1.3125 0  1.3125 -1 0  -1 1.3125 0  -1 3.8125 0  -1 4.4375 0  -4.4375 1 0  4.4375 -1 0  4.4375 1 0  -1.3125 1 0  1 4.4375 0  1 -4.4375 0  -1 -5.0625 0  -1 -4.4375 0  -3.1875 1 0  2.5625 1 0  1 -1.9375 0  1 -1.3125 0  5.6875 1 0  1 3.8125 0  3.1875 1 0  -3.1875 -1 0  1 -5.0625 0  1.35138038998199 0.6675097549271188 0  -0.465625 0.986328125 0  1.435958105992309 0.2563920171199723 0  1.915914614192913 -0.145782394639918 0  -0.8764440609469509 -0.5746869313612541 0  5.355194559946098 0.01566259380337612 0  -5.69333042954964 -0.5242868300459975 0  1.78125 -0.7320750794491524 0  0.7320750794491525 -3.96875 0  -0.3959075548864684 5.166422468926435 0  -4.770522389068053 -0.2123670725088856 0  -4.714160156249999 -0.69234375 0  -4.273484403713342 -0.278160994327167 0  0.9642590244517505 0.08196089404241463 0  0.3500261717645397 -4.727285205957206 0  0.6740868006020392 -4.765147848348443 0  0.6797550207247084 -1.089747806381148 0  -5.186479934354063 0.3046329157552757 0  -5.263288238215326 -0.3369092276308425 0  -2.433484016245305 0.5442571297016638 0  0.1707808983307866 -3.82363304980935 0  -0.1554012991031027 3.867535742674252 0  4.855508096805579 -0.2283975605264581 0  3.644517238097614 0.5646428152488787 0  0.05699603874439441 -0.6452791208413911 0  -0.3550018917972689 -0.5695324323732931 0  0.6
[...]
<PointData  Vectors="u"> 
<DataArray  type="Float64"  Name="u"  NumberOfComponents="3" format="ascii">0.0000000000000000e+00 0.0000000000000000e+00 0.0000000000000000e+00  0.0000000000000000e+00 0.0000000000000000e+00 0.0000000000000000e+00  0.0000000000000000e+00 0.0000000000000000e+00 0.0000000000000000e+00  0.0000000000000000e+00 0.0000000000000000e+00 0.0000000000000000e+00  0.0000000000000000e+00 0.0000000000000000e+00 0.0000000000000000e+00  0.0000000000000000e+00 0.0000000000000000e+00 0.0000000000000000e+00  0.0000000000000000e+00 0.0000000000000000e+00 0.0000000000000000e+00  0.0000000000000000e+00 0.0000000000000000e+00 0.0000000000000000e+00  0.0000000000000000e+00 0.0000000000000000e+00 0.0000000000000000e+00  0.0000000000000000e+00 0.0000000000000000e+00 0.0000000000000000e+00  0.0000000000000000e+00 0.0000000000000000e+00 0.0000000000000000e+00  0.0000000000000000e+00 0.0000000000000000e+00 0.0000000000000000e+00  0.0000000000000000e+00 0.0000000000000000e+00 0.0000000000000000e+00  0.0000000000000000e+00 0.0000000000000000e+00 0.0000000000000000e+00  0.0000000000000000e+00 0.0000000000000000e+00 0.0000000000000000e+00  0.0000000000000000e+00 0.0000000000000000e+00 0.0000000000000000e+00  0.0000000000000000e+00 0.0000000000000000e+00 0.0000000000000000e+00  0.0000000000000000e+00 0.0000000000000000e+00 0.0000000000000000e+00  0.0000000000000000e+00 0.0000000000000000e+00 0.0000000000000000e+00  0.0000000000000000e+00 0.0000000000000000e+00 0.0000000000000000e+00  0.0000000000000000e+00 0.0000000000000000e+00 0.0000000000000000e+00  0.0000000000000000e+00 0.0000000000000000e+00 0.0000000000000000e+00  0.0000000000000000e+00 0.0000000000000000e+00 0.0000000000000000e+00  0.0000000000000000e+00 0.0000000000000000e+00 0.0000000000000000e+00  0.0000000000000000e+00 0.0000000000000000e+00 0.0000000000000000e+00  0.0000000000000000e+00 0.0000000000000000e+00 0.0000000000000000e+00  0.0000000000000000e+00 0.0000000000000000e+00 0.0000000000000000e+00  0.0000000000000000e+00 0.0000000000000000e+00 0.0000000000000000e+00  0.0000000000000000e+00 0.0000000000000000e+00 0.0000000000000000e+00  0.0000000000000000e+00 0.0000000000000000e+00 0.0000000000000000e+00  0.0000000000000000e+00 0.0000000000000000e+00 0.0000000000000000e+00  0.0000000000000000e+00 0.0000000000000000e+00 0.0000000000000000e+00  0.0000000000000000e+00 0.0000000000000000e+00 0.0000000000000000e+00  0.0000000000000000e+00 0.0000000000000000e+00 0.0000000000000000e+00  0.0000000000000000e+00 0.0000000000000000e+00 0.0000000000000000e+00  0.0000000000000000e+00 0.0000000000000000e+00 0.0000000000000000e+00  -1.8770475665505872e-04 8.1067082954758326e-05 0.0000000000000000e+00  3.9102578857215402e-02 -1.0095578147640699e-05 0.0000000000000000e+00  3.7284366247300901e-02 6.8027528750942476e-05 0.0000000000000000e+00  3.9142269475157844e-02 2.0886206866776108e-06 0.0000000000000000e+00  3.9177133851377700e-02 3.0284266068197429e-05 0.0000000000000000e+00  9.6591431959091760e-06 3.9076097470094301e-02 0.0000000000000000e+00  -3.9023359250770780e-02 3.8124609185165640e-05 0.0000000000000000e+00  3.2100057149643627e-05 3.9045247362485783e-02 0.0000000000000000e+00  -3.7363736232036614e-02 1.0491388485360616e-04 0.0000000000000000e+00  8.0587292306777059e-06 -3.9059138737022735e-02 0.0000000000000000e+00  -2.6753073145824246e-05 -3.7160304373560903e-02 0.0000000000000000e+00  3.4813279529729862e-05 3.7122369642543264e-02 0.0000000000000000e+00  3.3370707060741432e-05 3.9058619721270109e-02 0.0000000000000000e+00  3.3279107908385133e-05 -3.9058963947093572e-02 0.0000000000000000e+00  5.2918155667944813e-05 -3.9110205784808880e-02 0.0000000000000000e+00  -3.9154314963069543e-02 -1.0781472746579155e-05 0.0000000000000000e+00  -3.9109049638320195e-02 -3.6909147117122516e-05 0.0000000000000000e+00  -4.6492868313891419e-05 3.9157218912995229e-02 0.0000000000000000e+00  3.9088102907267802e-02 -4.5045634032941980e-05 0.0000000000000000e+00  -6.1177759878422325e-05 -3.8892433570829769e-02 0.0000000000000000e+00  -3.9000493572859729e-02 -4.6072717883395025e-05 0.0000000000000000e+00  -2.5230267860609792e-02 -5.2966092808621103e-03 0.0000000000000000e+00  5.0232062215489481e-03 -2.4766863729015105e-02 0.0000000000000000e+00  2.4687078103627427e-02 5.2532796581575463e-03 0.0000000000000000e+00  5.2649332930355640e-03 2.4807010359444312e-02 0.0000000000000000e+00  0.0000000000000000e+00 0.0000000000000000e+00 0.0000000000000000e+00  0.0000000000000000e+00 0.0000000000000000e+00 0.0000000000000000e+00  0.0000000000000000e+00 0.0000000000000000e+00 0.0000000000000000e+00  0.0000000000000000e+00 0.0000000000000000e+00 0.0000000000000000e+00  -1.7400102762660713e-02 1.4594534189224670e-02 0.0000000000000000e+00  0.0000000000000000e+00 0.0000000000000000e+00 0.0000000000000000e+00  0.0000000000000000e+00 0.0000000000000000e+00 0.0000000000000000e+00  0.0000000000000000e+00 0.0000000000000000e+00 0.0000000000000000e+00  5.9439976785992502e-05 -3.7267237240486209e-02 0.0000000000000000e+00  0.0000000000000000e+00 0.0000000000000000e+00 0.0000000000000000e+00  -3.8978425848277411e-02 -8.7296395568039971e-07 0.0000000000000000e+00  -3.9013428379762329e-02 5.4512256582220283e-05 0.0000000000000000e+00  -3.8913935635431676e-02 2.6622416203307269e-06 0.0000000000000000e+00  0.0000000000000000e+00 0.0000000000000000e+00 0.0000000000000000e+00  0.0000000000000000e+00 0.0000000000000000e+00 0.0000000000000000e+00  1.9490914938852632e-05 3.9011431099785727e-02 0.0000000000000000e+00  -8.6573692725608568e-06 3.9061917546760271e-02 0.0000000000000000e+00  0.0000000000000000e+00 0.0000000000000000e+00 0.0000000000000000e+00  0.0000000000000000e+00 0.0000000000000000e+00 0.0000000000000000e+00  1.9109059387662899e-04 3.8756890190087177e-02 0.0000000000000000e+00  -3.0139603903059592e-04 3.8885764797111165e-02 0.0000000000000000e+00  0.0000000000000000e+00 0.0000000000000000e+00 0.0000000000000000e+00  0.0000000000000000e+00 0.0000000000000000e+00 0.0000000000000000e+00  4.8045025343937593e-05 -3.8943072277646526e-02 0.0000000000000000e+00  1.3250473153863927e-05 -3.9048114654396421e-02 0.0000000000000000e+00  0.0000000000000000e+00 0.0000000000000000e+00 0.0000000000000000e+00  -1.7530077070866009e-04 -3.8907426830021456e-02 0.0000000000000000e+00  3.6914768797432248e-04 -3.8872060107905802e-02 0.0000000000000000e+00  0.0000000000000000e+00 0.0000000000000000e+00 0.0000000000000000e+00  0.0000000000000000e+00 0.0000000000000000e+00 0.0000000000000000e+00  0.0000000000000000e+00 0.0000000000000000e+00 0.0000000000000000e+00  0.0000000000000000e+00 0.0000000000000000e+00 0.0000000000000000e+00  0.0000000000000000e+00 0.0000000000000000e+00 0.0000000000000000e+00  0.0000000000000000e+00 0.0000000000000000e+00 0.0000000000000000e+00  -3.8702991534767674e-02 2.7646603778398883e-04 0.0000000000000000e+00  -3.8856500739987553e-02 -2.6266421122248836e-04 0.0000000000000000e+00  0.0000000000000000e+00 0.0000000000000000e+00 0.0000000000000000e+00  0.0000000000000000e+00 0.0000000000000000e+00 0.0000000000000000e+00  0.0000000000000000e+00 0.0000000000000000e+00 0.0000000000000000e+00  0.0000000000000000e+00 0.0000000000000000e+00 0.0000000000000000e+00  0.0000000000000000e+00 0.0000000000000000e+00 0.0000000000000000e+00  0.0000000000000000e+00 0.0000000000000000e+00 0.0000000000000000e+00  3.8773583212376256e-02 3.0115813516296247e-04 0.0000000000000000e+00  3.8865363653560560e-02 -2.3225068923763938e-04 0.0000000000000000e+00  0.0000000000000000e+00 0.0000000000000000e+00 0.0000000000000000e+00  0.0000000000000000e+00 0.0000000000000000e+00 0.0000000000000000e+00  0.0000000000000000e+00 0.0000000000000000e+00 0.0000000000000000e+00  3.8779944875958261e-02 6.5576966482950295e-05 0.0000000000000000e+00  3.9077581620388650e-02 1.8951752256385807e-05 0.0000000000000000e+00  0.0000000000000000e+00 0.0000000000000000e+00 0.0000000000000000e+00  0.0000000000000000e+00 0.0000000000000000e+00 0.0000000000000000e+00  -7.2623419380865532e-03 3.2700052482880007e-02 0.0000000000000000e+00  3.3715822132920653e-02 -7.2210799834948377e-03 0.0000000000000000e+00  -6.7697967760424627e-03 -3.4072768456126425e-02 0.0000000000000000e+00  -3.4451881565317755e-02 6.4297907785528007e-03 0.0000000000000000e+00  4.2158067722496372e-05 -3.7098246643065200e-02 0.0000000000000000e+00  -4.5287463171833519e-06 -3.9057858960583107e-02 0.0000000000000000e+00  -3.8980091286336983e-02 -4.7805019810613708e-05 0.0000000000000000e+00  1.3274014817574202e-06 3.8993492643633186e-02 0.0000000000000000e+00  5.0863380370086676e-05 3.8886042927334406e-02 0.0000000000000000e+00  1.6451870014515049e-02 -1.0300265005919653e-02 0.0000000000000000e+00  3.7487213529952525e-02 5.3299147637130354e-03 0.0000000000000000e+00  3.6374116459499001e-05 3.7241895781163978e-02 0.0000000000000000e+00  -9.7898011121563700e-03 -1.6352748368737399e-02 0.0000000000000000e+00  -3.8829877816048124e-02 1.7538084128250371e-06 0.0000000000000000e+00  -3.9087038548765933e-02 9.9622758564038500e-06 0.0000000000000000e+00  4.3739504492511449e-05 -3.8844452205545811e-02 0.0000000000000000e+00  3.9147991618733086e-02 6.2648095489137368e-06 0.0000000000000000e+00  3.8906215772392463e-02 4.4978578251255400e-05 0.0000000000000000e+00  3.9090981493599131e-02 5.9986393663660575e-06 0.0000000000000000e+00  3.6909318536032923e-02 -1.3555107984192590e-05 0.0000000000000000e+00  3.1132824676345251e-05 3.8802767918826413e-02 0.0000000000000000e+00  -3.7544669753076260e-05 3.9074771641589505e-02 0.0000000000000000e+00  -2.1859256049411463e-05 -3.8978696725602772e-02 0.0000000000000000e+00  5.8914921408280063e-03 3.8644132424553737e-02 0.0000000000000000e+00  -3.7917912689789966e-02 -5.4955502895078553e-03 0.0000000000000000e+00  5.2919662754074524e-03 -3.7525155095257091e-02 0.0000000000000000e+00  2.7047453866089816e-05 3.9009104630928271e-02 0.0000000000000000e+00  -1.8619729637286841e-05 -3.9136686685060026e-02 0.0000000000000000e+00  -3.9127114597093032e-02 -6.0353843378735633e-05 0.0000000000000000e+00  3.7199170265510166e-02 1.2382588107090390e-05 0.0000000000000000e+00  -3.8943026571431887e-02 -2.0394120900752197e-05 0.0000000000000000e+00  3.8980600216867209e-02 -3.3747529738728077e-05 0.0000000000000000e+00  -3.9044365007475615e-02 -1.0683597321881842e-04 0.0000000000000000e+00  5.2117363892912584e-06 -3.8896201316692434e-02 0.0000000000000000e+00  6.5432233662141915e-06 3.8896466080271787e-02 0.0000000000000000e+00  3.7706943572023872e-02 9.7525199400653079e-05 0.0000000000000000e+00  3.8806227197945943e-02 -2.1093650610201908e-03 0.0000000000000000e+00  3.9033853447797126e-02 5.8272062361959713e-06 0.0000000000000000e+00  7.8862322206379695e-06 3.8986246942131209e-02 0.0000000000000000e+00  -8.1729166230447487e-05 3.8859399157156631e-02 0.0000000000000000e+00  -3.8976673717634816e-02 -1.7550436629820508e-05 0.0000000000000000e+00  -3.8862471017846748e-02 2.1176035376307863e-03 0.0000000000000000e+00  -1.3319469892462488e-03 -3.8757537810350816e-02 0.0000000000000000e+00  3.7174281468777654e-06 -3.8883187525040233e-02 0.0000000000000000e+00  -1.4995426288906585e-03 3.9042348916911163e-02 0.0000000000000000e+00  -3.8968562086706515e-02 8.9750541207326092e-05 0.0000000000000000e+00  6.6517841426800292e-05 -3.8925468076986963e-02 0.0000000000000000e+00  3.8913969307444889e-02 4.4409744931085846e-06 0.0000000000000000e+00  -3.7511501749706820e-02 -2.4190933067918730e-05 0.0000000000000000e+00  3.9076493933040989e-02 -4.0110594151399699e-06 0.0000000000000000e+00  3.7326155435037853e-02 -1.3798326503444849e-04 0.0000000000000000e+00  -3.7337008837314646e-02 -2.9298699754248163e-04 0.0000000000000000e+00  3.3384968411838761e-05 3.8927116180788271e-02 0.0000000000000000e+00  6.2398789042306341e-05 -3.8904690918391160e-02 0.0000000000000000e+00  3.7184564425720518e-02 1.1075280967798120e-03 0.0000000000000000e+00  1.2017427697432960e-03 3.8485447229628912e-02 0.0000000000000000e+00  4.6076316075832625e-05 3.9079345682178135e-02 0.0000000000000000e+00  3.7655174808318703e-02 2.9593623873992587e-05 0.0000000000000000e+00  -3.9134527669997449e-02 -8.5572283486228724e-06 0.0000000000000000e+00  -3.4543253462617537e-02 7.0129897144121083e-05 0.0000000000000000e+00  4.5958391198792431e-05 3.3584526944350157e-02 0.0000000000000000e+00  -8.2024236780953337e-06 -3.9151809927609971e-02 0.0000000000000000e+00  -1.3942981992427019e-04 -3.4139049070831130e-02 0.0000000000000000e+00  3.9151107335834420e-02 -2.4809701107697973e-05 0.0000000000000000e+00  3.3955908895886969e-02 7.1211773649261726e-05 0.0000000000000000e+00  1.5197985875073136e-05 3.4794489043249832e-02 0.0000000000000000e+00  -3.8210802989312481e-02 2.2906036538224958e-04 0.0000000000000000e+00  -1.0064003918161112e-04 -3.4752580513609868e-02 0.0000000000000000e+00  1.5346613236296493e-04 3.5002625524179209e-02 0.0000000000000000e+00  -4.3459466100240284e-05 -3.4861397257653304e-02 0.0000000000000000e+00  1.0807060337089667e-02 1.0572364413071442e-02 0.0000000000000000e+00  2.0511768222129481e-02 2.3751976604591180e-02 0.0000000000000000e+00  -2.7455725045056260e-03 1.3557890065977402e-02 0.0000000000000000e+00  1.4355245144530993e-03 -3.8513100710837057e-02 0.0000000000000000e+00  -3.8416363393038652e-02 -1.2851782916864726e-03 0.0000000000000000e+00  -1.9782825191457708e-05 3.8854198573708698e-02 0.0000000000000000e+00  5.2538996101876541e-06 -3.8926248264036137e-02 0.0000000000000000e+00  0.0000000000000000e+00 0.0000000000000000e+00 0.0000000000000000e+00  0.0000000000000000e+00 0.0000000000000000e+00 0.0000000000000000e+00  1.7513537021611111e-03 -3.3283475671726924e-02 0.0000000000000000e+00  -3.3363779775471634e-02 -1.1246460310162596e-03 0.0000000000000000e+00  -1.2639155544478531e-02 -3.2715439897101433e-03 0.0000000000000000e+00  2.0800146117877786e-02 -2.7005317496052308e-02 0.0000000000000000e+00  -3.3540839102162538e-02 -1.6166861021791219e-02 0.0000000000000000e+00  3.3268423906540050e-02 9.0623066003675133e-04 0.0000000000000000e+00  2.7865624003781678e-04 3.2895274866616545e-02 0.0000000000000000e+00  3.3656028778492699e-03 -1.2514249338825726e-02 0.0000000000000000e+00  0.0000000000000000e+00 0.0000000000000000e+00 0.0000000000000000e+00  3.5273277804900423e-02 -5.6449468059751066e-04 0.0000000000000000e+00  -3.7033938699714830e-03 -3.8820698778957531e-02 0.0000000000000000e+00  0.0000000000000000e+00 0.0000000000000000e+00 0.0000000000000000e+00  1.5121947026689058e-04 -3.5135390534994072e-02 0.0000000000000000e+00  0.0000000000000000e+00 0.0000000000000000e+00 0.0000000000000000e+00  1.9968672063812995e-04 3.5739196570676313e-02 0.0000000000000000e+00  -3.5869118039590260e-02 -3.0330266581879217e-04 0.0000000000000000e+00  0.0000000000000000e+00 0.0000000000000000e+00 0.0000000000000000e+00  0.0000000000000000e+00 0.0000000000000000e+00 0.0000000000000000e+00  0.0000000000000000e+00 0.0000000000000000e+00 0.0000000000000000e+00  2.4139716767371934e-05 -3.9066857023391618e-02 0.0000000000000000e+00  -6.3605185630157931e-05 3.8993884841093632e-02 0.0000000000000000e+00  3.9110544540807875e-02 1.0365203808356278e-05 0.0000000000000000e+00  3.8564325926169575e-02 -5.7623990873499468e-04 0.0000000000000000e+00  -3.8966193533244015e-02 -3.3115958155427969e-05 0.0000000000000000e+00  2.6925146893910854e-05 -3.9005429177777461e-02 0.0000000000000000e+00  5.0116383306473515e-05 3.8996265884912000e-02 0.0000000000000000e+00  -3.9156774692692943e-02 7.0122351243686841e-06 0.0000000000000000e+00  3.4447779691110354e-02 1.3987815264036300e-06 0.0000000000000000e+00  0.0000000000000000e+00 0.0000000000000000e+00 0.0000000000000000e+00  0.0000000000000000e+00 0.0000000000000000e+00 0.0000000000000000e+00  7.6274828790516894e-04 -3.5948969367256625e-02 0.0000000000000000e+00  -1.9355950266110441e-04 3.5990261283931360e-02 0.0000000000000000e+00  0.0000000000000000e+00 0.0000000000000000e+00 0.0000000000000000e+00  -3.7863862707522025e-02 4.8193823254650848e-04 0.0000000000000000e+00  0.0000000000000000e+00 0.0000000000000000e+00 0.0000000000000000e+00  0.0000000000000000e+00 0.0000000000000000e+00 0.0000000000000000e+00  3.7887967393988690e-02 1.2583362629009737e-04 0.0000000000000000e+00  -3.7601725952840108e-02 -4.5160602612674802e-05 0.0000000000000000e+00  0.0000000000000000e+00 0.0000000000000000e+00 0.0000000000000000e+00  0.0000000000000000e+00 0.0000000000000000e+00 0.0000000000000000e+00  -1.8229173478317044e-02 -2.8581376837422685e-02 0.0000000000000000e+00  -4.5991285152161107e-05 -3.8911079601118795e-02 0.0000000000000000e+00  -3.8873239991481609e-02 1.0594617648359311e-04 0.0000000000000000e+00  3.9006361132464487e-02 -1.9687017772208815e-06 0.0000000000000000e+00  3.3799239089153409e-05 3.9102283864269026e-02 0.0000000000000000e+00  -3.5976277291119602e-02 -1.7331681697780837e-04 0.0000000000000000e+00  2.0946786703179341e-04 3.5651599496419883e-02 0.0000000000000000e+00  -4.9444927509538299e-05 3.5225649729055203e-02 0.0000000000000000e+00  1.1709032401708950e-04 -3.5413249502718396e-02 0.0000000000000000e+00  4.4138052604562663e-05 -3.8901155220177931e-02 0.0000000000000000e+00  0.0000000000000000e+00 0.0000000000000000e+00 0.0000000000000000e+00  4.7723011666152867e-06 -3.8865566764828940e-02 0.0000000000000000e+00  -2.0232851351785801e-02 4.0423378690608120e-03 0.0000000000000000e+00  -3.0388690668432004e-02 2.0416656925573679e-02 0.0000000000000000e+00  3.5261972570609486e-02 1.6426914852081354e-02 0.0000000000000000e+00  -2.7136009903087894e-03 -3.6799369733168379e-02 0.0000000000000000e+00  1.0949991769508402e-02 5.5254956163092614e-05 0.0000000000000000e+00  -3.6191497539346730e-02 -3.4157820385513643e-04 0.0000000000000000e+00  1.3368651242152504e-05 -3.6115293037536828e-02 0.0000000000000000e+00  -3.6039973485830405e-04 3.6164735534684855e-02 0.0000000000000000e+00  3.5825583797006767e-02 5.7731283432601784e-05 0.0000000000000000e+00  3.5993620999738914e-02 3.2463687445666741e-05 0.0000000000000000e+00  3.1194251170728121e-04 3.8538321047897499e-02 0.0000000000000000e+00  3.6228215292447234e-02 5.9786715266624550e-04 0.0000000000000000e+00  4.8098253803965026e-05 -3.9085508547181305e-02 0.0000000000000000e+00  3.3591601244170537e-05 3.9095793320890498e-02 0.0000000000000000e+00  3.8947742181966151e-02 3.2503618989434657e-05 0.0000000000000000e+00  -3.9061282621208615e-02 7.3217205865690625e-05 0.0000000000000000e+00  -3.5225722628637310e-02 3.0387646692984637e-04 0.0000000000000000e+00  -3.0313277584537705e-04 -3.8474358837269858e-02 0.0000000000000000e+00  -2.6023978895458900e-04 -3.4935896484780557e-02 0.0000000000000000e+00  -3.8488965560791434e-02 7.2176574886025210e-04 0.0000000000000000e+00  3.9127041416689927e-02 2.9335946261296272e-05 0.0000000000000000e+00  1.4262472041936645e-05 3.9053727276364442e-02 0.0000000000000000e+00  3.8489905977476417e-02 6.0119501210785227e-04 0.0000000000000000e+00  -4.6002014708234956e-03 2.4139053319648173e-02 0.0000000000000000e+00  0.0000000000000000e+00 0.0000000000000000e+00 0.0000000000000000e+00  0.0000000000000000e+00 0.0000000000000000e+00 0.0000000000000000e+00  0.0000000000000000e+00 0.0000000000000000e+00 0.0000000000000000e+00  -1.1833381229405078e-05 3.9113467136713390e-02 0.0000000000000000e+00  3.3111778317415314e-05 3.8949734284365801e-02 0.0000000000000000e+00  4.3697312179520385e-05 -3.8995661623799541e-02 0.0000000000000000e+00  -3.8928991818569784e-02 -1.3041501224708091e-06 0.0000000000000000e+00  0.0000000000000000e+00 0.0000000000000000e+00 0.0000000000000000e+00  -1.4498635504970527e-05 -3.9076179350388776e-02 0.0000000000000000e+00  0.0000000000000000e+00 0.0000000000000000e+00 0.0000000000000000e+00  -3.4950251320866522e-02 -3.1950059480582973e-05 0.0000000000000000e+00  -6.4985433570529701e-05 -3.9000477079363514e-02 0.0000000000000000e+00  -2.9996249138942461e-03 3.5997791522947381e-02 0.0000000000000000e+00  -4.7858876470910014e-03 3.8003800983447619e-02 0.0000000000000000e+00  -3.9141946259935029e-02 5.4646181467967299e-06 0.00