<?xml version="1.0"?>
<VTKFile type="UnstructuredGrid"  version="0.1"  >
<UnstructuredGrid>
<Piece  NumberOfPoints="778" NumberOfCells="1401">
<Points>
<DataArray  type="Float64"  NumberOfComponents="3"  format="ascii">1 -1 0  6 -1 0  6 1 0  1 1 0  1 6 0  -1 6 0  -1 1 0  -6 1 0  -6 -1 0  -1 -1 0  -1 -6 0  1 -6 0  1 3.5 0  -1 3.5 0  -1 -3.5 0  1 -3.5 0  3.5 -1 0  3.5 1 0  -3.5 -1 0  -3.5 1 0  -1 -2.25 0  1 -2.25 0  2.25 -1 0  2.25 1 0  -1 2.25 0  1 2.25 0  -1 4.75 0  1 4.75 0  -4.75 -1 0  -4.75 1 0  -2.25 1 0  -2.25 -1 0  1 -4.75 0  -1 -4.75 0  4.75 1 0  4.75 -1 0  0 0 0  -2.875 0 0  -1.625 0 0  -4.125 0 0  -6 0 0  0 2.875 0  2.875 0 0  0 6 0  1.625 0 0  0 -2.875 0  0 -1.625 0  0 1.625 0  0 4.125 0  0 -6 0  0 -4.125 0  4.125 0 0  6 0 0  -0.109375 5.0625 0  -5.0625 -0.109375 0  -0.109375 -5.0625 0  5.0625 0.109375 0  0.8125 -0.1875 0  -0.1875 -0.8125 0  -0.8125 0.1875 0  -0.1875 0.8125 0  1 5.375 0  -5.375 1 0  1 -5.375 0  5.375 -1 0  0.53515625 0.46484375 0  -5.375 -1 0  -1 5.375 0  -1 -5.375 0  -0.5 -6 0  5.375 1 0  6 0.5 0  3.5 0.3046875 0  3.43125 -0.34765625 0  2.875 -1 0  4.125 1 0  0.3046875 3.5 0  -0.34765625 3.56875 0  -1 4.125 0  1 4.125 0  -0.3046875 2.25 0  0.34765625 2.18125 0  1 1.625 0  -1 -1.625 0  -0.3046875 -3.5 0  0.34765625 -3.56875 0  1 -4.125 0  0.3046875 -2.25 0  -0.34765625 -2.18125 0  -1 -4.125 0  -1 -2.875 0  1 -2.875 0  1 -1.625 0  1.625 -1 0  1.625 1 0  2.25 0.3046875 0  2.18125 -0.34765625 0  4.125 -1 0  2.875 1 0  1 2.875 0  -1 1.625 0  -1 2.875 0  -4.125 -1 0  -2.25 0.3046875 0  -2.31875 -0.34765625 0  -2.875 -1 0  -1.625 1 0  -4.125 1 0  -3.5 0.3046875 0  -3.56875 -0.34765625 0  -1.625 -1 0  -2.875 1 0  0.380626321794301 1.06853329530276 0  -1.110819327731092 -0.3739495798319328 0  0.3739495798319328 -1.110819327731092 0  1.151210293219304 0.3991939332620648 0  -0.5 -4.4375 0  0.5 -4.4375 0  5.481553398058253 -0.3712833737864077 0  0.5 4.4375 0  0.5 6 0  -0.522503783594538 -0.3265648647465863 0  -1.3125 0.5 0  -0.5 6 0  0.3265648647465863 -0.522503783594538 0  4.4375 0.5 0  4.4375 -0.5 0  0.5 -6 0  -6 -0.5 0  -5.481553398058253 0.3712833737864077 0  -4.55 -0.4296875 0  -4.4375 0.5 0  -0.5 4.4375 0  0.4792930825242718 5.026881067961165 0  0.4792930825242718 -5.026881067961165 0  -0.5 1.3125 0  1.3125 -0.5 0  -0.5 -1.3125 0  0.25 5.518539952962044 0  0.2125133872612723 -5.500076563152851 0  4.969341874373811 -0.5152550785163683 0  -4.969341874373811 0.5152550785163683 0  3.927189744345589 -0.4712876597840069 0  -5.554036458333333 -0.25 0  5.554036458333333 0.25 0  -0.4690710616438356 -5.462756849315069 0  -0.4690710616438356 5.462756849315069 0  -6 0.5 0  -1.59556436210848 -0.5 0  -3.058421751829955 -0.5 0  -0.5 2.731982421875 0  0.5 2.691578248170045 0  2.691578248170045 -0.5 0  1.641211254104555 0.5 0  0.5 -1.768017578125 0  0.5 -3.058421751829955 0  0.5 1.699267578125 0  3.018017578125 0.5 0  -0.5 -3.018017578125 0  -2.731982421875 0.5 0  6 -0.5 0  -4.050017120925308 -0.5006099332648871 0  -3.940668202764977 0.5371363767281105 0  3.940668202764977 0.5371363767281105 0  0.4517449476047904 3.958458083832335 0  -0.4517449476047904 -3.958458083832335 0  -1.809331797235023 0.5371363767281105 0  -0.4517449476047904 1.791541916167665 0  -0.0546875 4.59375 0  -5.006445312499999 -0.58984375 0  4.605643203883496 -0.04725424757281554 0  4.90625 0.5546875 0  -0.5546875 4.90625 0  0.04725424757281554 -4.605643203883496 0  -0.586116118210531 -4.995821561900013 0  -4.603710222472543 0.04846236095466061 0  -3.1875 0.65234375 0  0.6163907621110913 3.147502300973589 0  2.5625 0.65234375 0  0.6163907621110913 -2.602497699026411 0  -0.637456713551384 3.189259902731882 0  -0.637456713551384 -2.560740097268118 0  -0.34765625 0.34765625 0  -0.639453125 0.708203125 0  0.089630126953125 0.437286376953125 0  -0.4238281249999999 -1.746875 0  1.746875 -0.4238281249999999 0  -0.4238281249999999 4.003125 0  0.4238281249999999 -4.003125 0  -2.5625 -1 0  3.1875 -1 0  -0.09375 -1.21875 0  1.21875 -0.09375 0  0.4020305405760241 -0.1120343241705621 0  -0.6280191027904287 -0.7577505545748082 0  0.90625 -0.59375 0  -1.205500904741459 0.03633725387965409 0  -0.02129048848213058 1.202028574265107 0  -0.1120343241705621 -0.4020305405760241 0  1 1.3125 0  -2.003587563743074 -0.6442361556699288 0  0.6640077663259718 -1.395873598614549 0  5.6875 -1 0  0.6308138580859101 -5.592151086468728 0  -5.6875 -1 0  0.6568032075915271 5.612942566073222 0  5.616530031741774 0.6612875396772174 0  -5.6875 1 0  1.9375 1 0  -1.3125 -1 0  0.1524679547155687 -3.232579139388032 0  0.1524679547155687 2.517420860611968 0  -3.232579139388032 -0.1524679547155687 0  -1.932320553757026 -0.252759244693845 0  2.517420860611968 -0.1524679547155687 0  -0.04776045819569434 -2.464949198504599 0  -0.2420369079104247 3.187693796852321 0  3.751304711039982 -0.1203080877045035 0  -5.397601941771943 -0.609026059866711 0  1.3125 1 0  1.9375 -1 0  -0.6946315101963667 -2.018229242739021 0  -0.6946315101963667 3.731770757260979 0  1 -3.8125 0  2.014364435550335 0.6166648446293641 0  -1 5.6875 0  -1 -5.6875 0  -2.653476149871182 -0.5942957192996303 0  3.096523850128818 -0.5942957192996303 0  1 1.9375 0  -3.8125 -1 0  0.586975531244212 -0.7975955463807081 0  -0.2946248980953088 -4.743710873809568 0  2.625453376770019 0.2814788818359375 0  -3.124546623229981 0.2814788818359375 0  -0.1204856417894853 5.631800603217465 0  5.253862011026742 0.6581468962876398 0  -0.65234375 2.108701557941197 0  0.65234375 3.641298442058803 0  -0.65234375 -3.641298442058803 0  -0.25 -5.744880569758637 0  -4.4375 -1 0  -0.3166212631734941 -2.713595940002554 0  0.6591479224207506 0.1324305912687024 0  0.8660781906552419 0.6468634238104103 0  -0.9887189158197679 0.6452930723873549 0  0.3149351927204296 -1.460971774996065 0  -0.3572852727880474 -0.009629022788047503 0  2.09375 -0.6866724363772454 0  0.6866724363772454 -3.65625 0  0.6866724363772454 2.09375 0  -3.65625 -0.6866724363772454 0  -3.5371337890625 0.65234375 0  -0.1389584113023952 1.944025352615082 0  -2.151744288472698 0.65234375 0  -0.1389584113023951 -3.805974647384918 0  0.1389584113023951 3.805974647384918 0  -2.578772109813904 0.1857224367977529 0  3.171227890186096 0.1857224367977529 0  3.360315647536819 0.65234375 0  0.1857224367977528 -1.921227890186096 0  0.65234375 -2.110315647536819 0  1.894016528727564 0.2415406141485869 0  -3.738232421875 0 0  0.2516875549238616 3.139069895099618 0  -1.913724396854074 0.2011142179916434 0  0.1669456568161915 0.7843410671359501 0  -2.5625 1 0  -1 -3.1875 0  -1 2.5625 0  0.1736601499778735 4.857955663330752 0  -0.1893536587212888 2.577300639071919 0  -0.1893536587212888 -3.172699360928081 0  3.852271904453858 0.206603749322895 0  -3.8125 1 0  -0.1250095034621793 -5.421707592768541 0  3.8125 -1 0  3.617304217264373 -0.6578427703661498 0  0.2630176195580202 -2.636558318495885 0  0.2674330357770522 1.399517071108871 0  0.631726413079416 1.339254523727593 0  4.700571879807737 0.2813704945051134 0  0.7143844363649634 -3.319538455208831 0  2.430461544791169 -0.7143844363649634 0  0.7143844363649634 2.430461544791169 0  -3.319538455208831 -0.7143844363649634 0  5.687045771608623 -0.6520598572553891 0  -5.687045771608623 0.6520598572553891 0  -1.15625 -0.7048248829733235 0  3.438284572973296 -0.01860298867862281 0  -0.03021088078697859 3.451572359862192 0  2.216682837011589 -0.02159585961918548 0  -2.191580885932936 -0.03126387444658879 0  0.1857410764408683 1.895679405349457 0  3.103473238297955 -0.253270943723272 0  -2.646526761702045 -0.253270943723272 0  -2.333137350671861 -0.6791984914172315 0  -1 5.0625 0  -0.6971235589909319 5.213002544375844 0  0.01618705363819947 2.225929180591695 0  0.01618705363819947 -3.524070819408305 0  0.5690054882403073 0.7951310720450595 0  -0.5764940424412852 -3.329579265180942 0  -0.5764940424412852 2.420420734819058 0  3.8125 1 0  -5.372163860234628 0.04365139563106807 0  5.164108319316826 -0.225040894204947 0  -5.361952437854323 0.6744012088984681 0  -5.0625 1 0  5.286835586913878 -0.6616705837083201 0  -5.692815197359722 0.1186699900166531 0  5.663425996156958 -0.07763197815533956 0  -0.9219866027132193 -0.1143045829323572 0  -1.394333629759332 -0.2233077430199216 0  0.09322478991596644 -0.9616596638655462 0  5.0625 -1 0  -0.14412109375 -1.92169189453125 0  -4.28125 -0.7212148987671345 0  0.2649796277366407 0.1735162902120744 0  -4.907855692236596 0.1868230509619793 0  -1.9375 1 0  1 5.0625 0  0.6915124486819284 -5.272938212550202 0  0.683483242673902 5.284948082526911 0  2.5625 -1 0  -1 -3.8125 0  -1 1.9375 0  5.0625 1 0  -1 -1.9375 0  1 5.6875 0  1 -5.6875 0  -1.9375 -1 0  -1 -2.5625 0  -1 3.1875 0  1 -3.1875 0  1 -2.5625 0  1 2.5625 0  1 3.1875 0  -5.0625 -1 0  -1 -1.3125 0  1.3125 -1 0  -1 1.3125 0  -1 3.8125 0  -1 4.4375 0  -4.4375 1 0  4.4375 -1 0  4.4375 1 0  -1.3125 1 0  1 4.4375 0  1 -4.4375 0  -1 -5.0625 0  -1 -4.4375 0  -3.1875 1 0  2.5625 1 0  1 -1.9375 0  1 -1.3125 0  5.6875 1 0  1 3.8125 0  3.1875 1 0  -3.1875 -1 0  1 -5.0625 0  1.35138038998199 0.6675097549271188 0  -0.465625 0.986328125 0  1.435958105992309 0.2563920171199723 0  1.915914614192913 -0.145782394639918 0  -0.8764440609469509 -0.5746869313612541 0  5.355194559946098 0.01566259380337612 0  -5.69333042954964 -0.5242868300459975 0  1.78125 -0.7320750794491524 0  0.7320750794491525 -3.96875 0  -0.3959075548864684 5.166422468926435 0  -4.770522389068053 -0.2123670725088856 0  -4.714160156249999 -0.69234375 0  -4.273484403713342 -0.278160994327167 0  0.9642590244517505 0.08196089404241463 0  0.3500261717645397 -4.727285205957206 0  0.6740868006020392 -4.765147848348443 0  0.6797550207247084 -1.089747806381148 0  -5.186479934354063 0.3046329157552757 0  -5.263288238215326 -0.3369092276308425 0  -2.433484016245305 0.5442571297016638 0  0.1707808983307866 -3.82363304980935 0  -0.1554012991031027 3.867535742674252 0  4.855508096805579 -0.2283975605264581 0  3.644517238097614 0.5646428152488787 0  0.05699603874439441 -0.6452791208413911 0  -0.3550018917972689 -0.5695324323732931 0  0.6
[...]
<PointData  Vectors="u"> 
<DataArray  type="Float64"  Name="u"  NumberOfComponents="3" format="ascii">0.0000000000000000e+00 0.0000000000000000e+00 0.0000000000000000e+00  0.0000000000000000e+00 0.0000000000000000e+00 0.0000000000000000e+00  0.0000000000000000e+00 0.0000000000000000e+00 0.0000000000000000e+00  0.0000000000000000e+00 0.0000000000000000e+00 0.0000000000000000e+00  0.0000000000000000e+00 0.0000000000000000e+00 0.0000000000000000e+00  0.0000000000000000e+00 0.0000000000000000e+00 0.0000000000000000e+00  0.0000000000000000e+00 0.0000000000000000e+00 0.0000000000000000e+00  0.0000000000000000e+00 0.0000000000000000e+00 0.0000000000000000e+00  0.0000000000000000e+00 0.0000000000000000e+00 0.0000000000000000e+00  0.0000000000000000e+00 0.0000000000000000e+00 0.0000000000000000e+00  0.0000000000000000e+00 0.0000000000000000e+00 0.0000000000000000e+00  0.0000000000000000e+00 0.0000000000000000e+00 0.0000000000000000e+00  0.0000000000000000e+00 0.0000000000000000e+00 0.0000000000000000e+00  0.0000000000000000e+00 0.0000000000000000e+00 0.0000000000000000e+00  0.0000000000000000e+00 0.0000000000000000e+00 0.0000000000000000e+00  0.0000000000000000e+00 0.0000000000000000e+00 0.0000000000000000e+00  0.0000000000000000e+00 0.0000000000000000e+00 0.0000000000000000e+00  0.0000000000000000e+00 0.0000000000000000e+00 0.0000000000000000e+00  0.0000000000000000e+00 0.0000000000000000e+00 0.0000000000000000e+00  0.0000000000000000e+00 0.0000000000000000e+00 0.0000000000000000e+00  0.0000000000000000e+00 0.0000000000000000e+00 0.0000000000000000e+00  0.0000000000000000e+00 0.0000000000000000e+00 0.0000000000000000e+00  0.0000000000000000e+00 0.0000000000000000e+00 0.0000000000000000e+00  0.0000000000000000e+00 0.0000000000000000e+00 0.0000000000000000e+00  0.0000000000000000e+00 0.0000000000000000e+00 0.0000000000000000e+00  0.0000000000000000e+00 0.0000000000000000e+00 0.0000000000000000e+00  0.0000000000000000e+00 0.0000000000000000e+00 0.0000000000000000e+00  0.0000000000000000e+00 0.0000000000000000e+00 0.0000000000000000e+00  0.0000000000000000e+00 0.0000000000000000e+00 0.0000000000000000e+00  0.0000000000000000e+00 0.0000000000000000e+00 0.0000000000000000e+00  0.0000000000000000e+00 0.0000000000000000e+00 0.0000000000000000e+00  0.0000000000000000e+00 0.0000000000000000e+00 0.0000000000000000e+00  0.0000000000000000e+00 0.0000000000000000e+00 0.0000000000000000e+00  0.0000000000000000e+00 0.0000000000000000e+00 0.0000000000000000e+00  0.0000000000000000e+00 0.0000000000000000e+00 0.0000000000000000e+00  0.0000000000000000e+00 0.0000000000000000e+00 0.0000000000000000e+00  -1.5450369263196191e-04 5.5284750888613198e-05 0.0000000000000000e+00  2.7871263257612952e-02 -7.6056412447702043e-06 0.0000000000000000e+00  2.6537199230435734e-02 6.2881047085990783e-05 0.0000000000000000e+00  2.7892289532497741e-02 7.4088228030751654e-07 0.0000000000000000e+00  2.7919142590099300e-02 2.3182254006196304e-05 0.0000000000000000e+00  6.7783509210831900e-06 2.7838034822304090e-02 0.0000000000000000e+00  -2.7808356566112559e-02 2.9947042453688114e-05 0.0000000000000000e+00  2.4335467755385365e-05 2.7831075496999320e-02 0.0000000000000000e+00  -2.6593422829368038e-02 8.5611582305904657e-05 0.0000000000000000e+00  7.5943913869372601e-06 -2.7833767597714762e-02 0.0000000000000000e+00  -2.8164220983148365e-05 -2.6411155685123797e-02 0.0000000000000000e+00  2.7341207620696963e-05 2.6395014933482938e-02 0.0000000000000000e+00  2.6731693779127831e-05 2.7839539418755093e-02 0.0000000000000000e+00  2.6023567012404661e-05 -2.7835858172427393e-02 0.0000000000000000e+00  3.8522921147238180e-05 -2.7876684533720185e-02 0.0000000000000000e+00  -2.7904238922139252e-02 -6.2975143696457298e-06 0.0000000000000000e+00  -2.7865758883725351e-02 -2.6702763535370200e-05 0.0000000000000000e+00  -3.1329035900295470e-05 2.7908428003870986e-02 0.0000000000000000e+00  2.7843721958162693e-02 -2.8465876388704303e-05 0.0000000000000000e+00  -4.2801977898173962e-05 -2.7684350974535695e-02 0.0000000000000000e+00  -2.7770803437947307e-02 -3.1775264088935277e-05 0.0000000000000000e+00  -1.7938664537310793e-02 -3.7982345933184770e-03 0.0000000000000000e+00  3.5366816300676841e-03 -1.7551040740532948e-02 0.0000000000000000e+00  1.7490694603177325e-02 3.7957800972411586e-03 0.0000000000000000e+00  3.7547709886721374e-03 1.7576687444966231e-02 0.0000000000000000e+00  0.0000000000000000e+00 0.0000000000000000e+00 0.0000000000000000e+00  0.0000000000000000e+00 0.0000000000000000e+00 0.0000000000000000e+00  0.0000000000000000e+00 0.0000000000000000e+00 0.0000000000000000e+00  0.0000000000000000e+00 0.0000000000000000e+00 0.0000000000000000e+00  -1.2384350026029315e-02 1.0338705076752226e-02 0.0000000000000000e+00  0.0000000000000000e+00 0.0000000000000000e+00 0.0000000000000000e+00  0.0000000000000000e+00 0.0000000000000000e+00 0.0000000000000000e+00  0.0000000000000000e+00 0.0000000000000000e+00 0.0000000000000000e+00  4.9346136773372594e-05 -2.6572254015215225e-02 0.0000000000000000e+00  0.0000000000000000e+00 0.0000000000000000e+00 0.0000000000000000e+00  -2.7786317656222567e-02 -2.7355990927212725e-06 0.0000000000000000e+00  -2.7684306636005900e-02 4.3542467792526630e-05 0.0000000000000000e+00  -2.7607323108858897e-02 -4.2694303367499385e-06 0.0000000000000000e+00  0.0000000000000000e+00 0.0000000000000000e+00 0.0000000000000000e+00  0.0000000000000000e+00 0.0000000000000000e+00 0.0000000000000000e+00  1.3257565456590807e-05 2.7772480863153072e-02 0.0000000000000000e+00  -8.6030383545253345e-06 2.7782304967262361e-02 0.0000000000000000e+00  0.0000000000000000e+00 0.0000000000000000e+00 0.0000000000000000e+00  0.0000000000000000e+00 0.0000000000000000e+00 0.0000000000000000e+00  1.3588914308244760e-04 2.7536871093033061e-02 0.0000000000000000e+00  -2.2432063435578586e-04 2.7679795323520804e-02 0.0000000000000000e+00  0.0000000000000000e+00 0.0000000000000000e+00 0.0000000000000000e+00  0.0000000000000000e+00 0.0000000000000000e+00 0.0000000000000000e+00  4.2322620251408976e-05 -2.7680883704690528e-02 0.0000000000000000e+00  9.6008372988276749e-06 -2.7802044912853791e-02 0.0000000000000000e+00  0.0000000000000000e+00 0.0000000000000000e+00 0.0000000000000000e+00  -1.2739228003489340e-04 -2.7723783065985597e-02 0.0000000000000000e+00  2.7199026781448674e-04 -2.7635868554210411e-02 0.0000000000000000e+00  0.0000000000000000e+00 0.0000000000000000e+00 0.0000000000000000e+00  0.0000000000000000e+00 0.0000000000000000e+00 0.0000000000000000e+00  0.0000000000000000e+00 0.0000000000000000e+00 0.0000000000000000e+00  0.0000000000000000e+00 0.0000000000000000e+00 0.0000000000000000e+00  0.0000000000000000e+00 0.0000000000000000e+00 0.0000000000000000e+00  0.0000000000000000e+00 0.0000000000000000e+00 0.0000000000000000e+00  -2.7465736848258798e-02 2.1180915086772958e-04 0.0000000000000000e+00  -2.7660474278868301e-02 -1.9189287486595202e-04 0.0000000000000000e+00  0.0000000000000000e+00 0.0000000000000000e+00 0.0000000000000000e+00  0.0000000000000000e+00 0.0000000000000000e+00 0.0000000000000000e+00  0.0000000000000000e+00 0.0000000000000000e+00 0.0000000000000000e+00  0.0000000000000000e+00 0.0000000000000000e+00 0.0000000000000000e+00  0.0000000000000000e+00 0.0000000000000000e+00 0.0000000000000000e+00  0.0000000000000000e+00 0.0000000000000000e+00 0.0000000000000000e+00  2.7485341451712587e-02 2.3762018330435880e-04 0.0000000000000000e+00  2.7568843026289171e-02 -1.6354159890770640e-04 0.0000000000000000e+00  0.0000000000000000e+00 0.0000000000000000e+00 0.0000000000000000e+00  0.0000000000000000e+00 0.0000000000000000e+00 0.0000000000000000e+00  0.0000000000000000e+00 0.0000000000000000e+00 0.0000000000000000e+00  2.7515815771195048e-02 4.5895059364341032e-05 0.0000000000000000e+00  2.7825907204367371e-02 1.3176982107782791e-05 0.0000000000000000e+00  0.0000000000000000e+00 0.0000000000000000e+00 0.0000000000000000e+00  0.0000000000000000e+00 0.0000000000000000e+00 0.0000000000000000e+00  -5.1603559826761611e-03 2.3155598194082961e-02 0.0000000000000000e+00  2.3889758809804328e-02 -5.2099819997500647e-03 0.0000000000000000e+00  -4.8003498614899330e-03 -2.4175291673821004e-02 0.0000000000000000e+00  -2.4433387093603664e-02 4.6116583669835072e-03 0.0000000000000000e+00  3.6951467750498577e-05 -2.6409413291574216e-02 0.0000000000000000e+00  -5.8206816285399605e-06 -2.7779952444689442e-02 0.0000000000000000e+00  -2.7667881913624005e-02 -3.1676114777440231e-05 0.0000000000000000e+00  -1.4650150220929003e-07 2.7735485946230209e-02 0.0000000000000000e+00  4.8313679344468303e-05 2.7603501980443871e-02 0.0000000000000000e+00  1.1692233140688919e-02 -7.3213551679799788e-03 0.0000000000000000e+00  2.6586681288416389e-02 3.8062149142267555e-03 0.0000000000000000e+00  3.3897871162963210e-05 2.6542501772792132e-02 0.0000000000000000e+00  -6.9010853358861621e-03 -1.1576098523560093e-02 0.0000000000000000e+00  -2.7525607503955267e-02 1.6621429952835266e-05 0.0000000000000000e+00  -2.7800137385375890e-02 9.9049521651610193e-06 0.0000000000000000e+00  4.7158416867539035e-05 -2.7544218370019490e-02 0.0000000000000000e+00  2.7849623384553365e-02 9.5203161110149212e-06 0.0000000000000000e+00  2.7611612928953189e-02 3.5044740840098664e-05 0.0000000000000000e+00  2.7770613724423125e-02 5.7041379615379626e-06 0.0000000000000000e+00  2.6231708052234362e-02 -1.0980864388286403e-05 0.0000000000000000e+00  3.2389813513899661e-05 2.7556843077017043e-02 0.0000000000000000e+00  -3.2994264325576648e-05 2.7784338708195067e-02 0.0000000000000000e+00  -1.4807885669886115e-05 -2.7682588276372207e-02 0.0000000000000000e+00  4.2951905610417139e-03 2.7441973827036011e-02 0.0000000000000000e+00  -2.6877195902442468e-02 -4.0135245481975213e-03 0.0000000000000000e+00  3.7618522619758754e-03 -2.6627621041693340e-02 0.0000000000000000e+00  2.0310828396236170e-05 2.7777556616761848e-02 0.0000000000000000e+00  -1.2411269467165118e-05 -2.7897291796010953e-02 0.0000000000000000e+00  -2.7825229029890680e-02 -5.2183102624598942e-05 0.0000000000000000e+00  2.6367466102839299e-02 1.4380133532298327e-05 0.0000000000000000e+00  -2.7640222407342339e-02 -1.3965518170596577e-05 0.0000000000000000e+00  2.7690032565711332e-02 -1.3999482309109022e-05 0.0000000000000000e+00  -2.7798418611908262e-02 -7.5268330627904190e-05 0.0000000000000000e+00  7.6365793924164595e-06 -2.7635617544356370e-02 0.0000000000000000e+00  3.6289642036138030e-06 2.7617234618120271e-02 0.0000000000000000e+00  2.6801874774567840e-02 7.5368600420985839e-05 0.0000000000000000e+00  2.7577587223629924e-02 -1.5392341041110850e-03 0.0000000000000000e+00  2.7727349532807827e-02 2.9566769094677741e-07 0.0000000000000000e+00  1.3217026773646216e-05 2.7684494413541098e-02 0.0000000000000000e+00  -6.5355314651652742e-05 2.7580025439378753e-02 0.0000000000000000e+00  -2.7681208258064451e-02 -1.0303842627981704e-05 0.0000000000000000e+00  -2.7619233104135443e-02 1.5608104551758973e-03 0.0000000000000000e+00  -1.0121990861589668e-03 -2.7583220872137836e-02 0.0000000000000000e+00  9.4156889073898495e-06 -2.7585837786419490e-02 0.0000000000000000e+00  -1.1244364560227594e-03 2.7788000868265567e-02 0.0000000000000000e+00  -2.7735467933646438e-02 7.1512221408814435e-05 0.0000000000000000e+00  4.2390052839817495e-05 -2.7650974981206208e-02 0.0000000000000000e+00  2.7595787947788341e-02 3.4518988818495033e-06 0.0000000000000000e+00  -2.6601133214341030e-02 -9.4095774273379670e-06 0.0000000000000000e+00  2.7795254921415668e-02 -3.6114400295144854e-06 0.0000000000000000e+00  2.6482520362263229e-02 -9.9143376710856949e-05 0.0000000000000000e+00  -2.6504517960012290e-02 -2.0707668156480491e-04 0.0000000000000000e+00  2.9921103146046863e-05 2.7631613421483032e-02 0.0000000000000000e+00  4.4957824611656183e-05 -2.7603765525902990e-02 0.0000000000000000e+00  2.6448756624959897e-02 8.1184681869990341e-04 0.0000000000000000e+00  8.9132467565183632e-04 2.7361936806795141e-02 0.0000000000000000e+00  3.4907886526049697e-05 2.7846330145672886e-02 0.0000000000000000e+00  2.6705185566238802e-02 7.2956670793036799e-06 0.0000000000000000e+00  -2.7887942241639610e-02 -6.7563715081129228e-06 0.0000000000000000e+00  -2.4226236764656465e-02 5.3341209362429259e-05 0.0000000000000000e+00  3.0375249504579482e-05 2.3434332582085250e-02 0.0000000000000000e+00  -5.1508409557794248e-06 -2.7897871454604643e-02 0.0000000000000000e+00  -9.1313438867029900e-05 -2.3875132659642452e-02 0.0000000000000000e+00  2.7889236541725100e-02 -1.5478819059451108e-05 0.0000000000000000e+00  2.3609878037226976e-02 4.5026375805463407e-05 0.0000000000000000e+00  2.7797195441368496e-06 2.4347874353255181e-02 0.0000000000000000e+00  -2.7087725836877050e-02 1.6998834744964079e-04 0.0000000000000000e+00  -5.5451729860188178e-05 -2.4322056437909918e-02 0.0000000000000000e+00  1.0052759604271163e-04 2.4393561441327209e-02 0.0000000000000000e+00  -1.8417369203963063e-05 -2.4159167864201043e-02 0.0000000000000000e+00  7.6552098849281712e-03 7.4476187223132167e-03 0.0000000000000000e+00  1.4456833952867471e-02 1.6819498567190602e-02 0.0000000000000000e+00  -1.9176820296870007e-03 9.6087434620713928e-03 0.0000000000000000e+00  1.0568471623347887e-03 -2.7374617184127047e-02 0.0000000000000000e+00  -2.7318473166331576e-02 -9.4435895284257162e-04 0.0000000000000000e+00  -1.4769145687851723e-05 2.7580214555275585e-02 0.0000000000000000e+00  7.6486727916527865e-06 -2.7632460929316194e-02 0.0000000000000000e+00  0.0000000000000000e+00 0.0000000000000000e+00 0.0000000000000000e+00  0.0000000000000000e+00 0.0000000000000000e+00 0.0000000000000000e+00  1.2584466265836238e-03 -2.3606268620812686e-02 0.0000000000000000e+00  -2.3712150855036022e-02 -7.6754459821231648e-04 0.0000000000000000e+00  -8.9639504269611800e-03 -2.3040766169949945e-03 0.0000000000000000e+00  1.4853169015581699e-02 -1.9155838110511185e-02 0.0000000000000000e+00  -2.3712127891144449e-02 -1.1637953941668217e-02 0.0000000000000000e+00  2.3665526178530190e-02 6.8238436530566600e-04 0.0000000000000000e+00  1.6632016002238973e-04 2.3369550635847305e-02 0.0000000000000000e+00  2.3688883453562848e-03 -8.8780942990996630e-03 0.0000000000000000e+00  0.0000000000000000e+00 0.0000000000000000e+00 0.0000000000000000e+00  2.4628858512486661e-02 -4.0315752799365700e-04 0.0000000000000000e+00  -2.8854920645026323e-03 -2.7597074675993174e-02 0.0000000000000000e+00  0.0000000000000000e+00 0.0000000000000000e+00 0.0000000000000000e+00  1.0338502371548173e-04 -2.4476989544103711e-02 0.0000000000000000e+00  0.0000000000000000e+00 0.0000000000000000e+00 0.0000000000000000e+00  1.3415864651123647e-04 2.4978566953138312e-02 0.0000000000000000e+00  -2.5070226868195943e-02 -2.0637144294724584e-04 0.0000000000000000e+00  0.0000000000000000e+00 0.0000000000000000e+00 0.0000000000000000e+00  0.0000000000000000e+00 0.0000000000000000e+00 0.0000000000000000e+00  0.0000000000000000e+00 0.0000000000000000e+00 0.0000000000000000e+00  1.6421094936650728e-05 -2.7831475055884982e-02 0.0000000000000000e+00  -4.8579526663150933e-05 2.7775930648510222e-02 0.0000000000000000e+00  2.7869829296082463e-02 6.8752705183180770e-06 0.0000000000000000e+00  2.7440039248477332e-02 -4.2539604341684383e-04 0.0000000000000000e+00  -2.7760370791042210e-02 -2.5429009486906398e-05 0.0000000000000000e+00  2.0109085493951843e-05 -2.7784236267615111e-02 0.0000000000000000e+00  3.2395466522288124e-05 2.7728841158403527e-02 0.0000000000000000e+00  -2.7894023396851111e-02 5.2101154928623636e-06 0.0000000000000000e+00  2.3933047613481695e-02 9.4606246704538153e-07 0.0000000000000000e+00  0.0000000000000000e+00 0.0000000000000000e+00 0.0000000000000000e+00  0.0000000000000000e+00 0.0000000000000000e+00 0.0000000000000000e+00  5.6165195296249660e-04 -2.5064419489653232e-02 0.0000000000000000e+00  -1.3142990919767862e-04 2.5052144615002690e-02 0.0000000000000000e+00  0.0000000000000000e+00 0.0000000000000000e+00 0.0000000000000000e+00  -2.6842192977038312e-02 3.6244721529761720e-04 0.0000000000000000e+00  0.0000000000000000e+00 0.0000000000000000e+00 0.0000000000000000e+00  0.0000000000000000e+00 0.0000000000000000e+00 0.0000000000000000e+00  2.6925573505380367e-02 7.9124068543767216e-05 0.0000000000000000e+00  -2.6727633503169566e-02 -3.3615661704474528e-05 0.0000000000000000e+00  0.0000000000000000e+00 0.0000000000000000e+00 0.0000000000000000e+00  0.0000000000000000e+00 0.0000000000000000e+00 0.0000000000000000e+00  -1.2962122552473579e-02 -2.0242026887788644e-02 0.0000000000000000e+00  -2.5073973626711004e-05 -2.7593936473056160e-02 0.0000000000000000e+00  -2.7636771672796677e-02 8.5756137896921661e-05 0.0000000000000000e+00  2.7758217486014959e-02 1.1481865819578553e-06 0.0000000000000000e+00  2.3322704740328470e-05 2.7866394250594232e-02 0.0000000000000000e+00  -2.5045722172007089e-02 -1.2588997285282986e-04 0.0000000000000000e+00  1.5948556762179620e-04 2.4759488323095661e-02 0.0000000000000000e+00  -2.0915359160939954e-05 2.4579019216441213e-02 0.0000000000000000e+00  8.0327356930046939e-05 -2.4620405426156823e-02 0.0000000000000000e+00  3.0104160597875786e-05 -2.7647395868001811e-02 0.0000000000000000e+00  0.0000000000000000e+00 0.0000000000000000e+00 0.0000000000000000e+00  4.2951052019970021e-06 -2.7593546314692852e-02 0.0000000000000000e+00  -1.4297823136638783e-02 2.9010559299042708e-03 0.0000000000000000e+00  -2.1565266049317265e-02 1.4506627170863991e-02 0.0000000000000000e+00  2.4980014655835516e-02 1.1680153132028633e-02 0.0000000000000000e+00  -1.9974741935250484e-03 -2.6169810546560247e-02 0.0000000000000000e+00  7.7358697018240011e-03 1.0656091885314153e-04 0.0000000000000000e+00  -2.5286290366671300e-02 -2.5402111321857481e-04 0.0000000000000000e+00  9.0438180965218207e-06 -2.5268305242187535e-02 0.0000000000000000e+00  -2.6790503139919344e-04 2.5267411969105202e-02 0.0000000000000000e+00  2.5009624155718904e-02 3.5201789551695478e-05 0.0000000000000000e+00  2.5024730472236762e-02 8.9190400605856595e-06 0.0000000000000000e+00  2.2689470917999991e-04 2.7441451904044820e-02 0.0000000000000000e+00  2.5126637406489082e-02 4.4790390003214629e-04 0.0000000000000000e+00  3.7307743259113185e-05 -2.7848328154871479e-02 0.0000000000000000e+00  2.4858919529518810e-05 2.7858211509472937e-02 0.0000000000000000e+00  2.7720116790660835e-02 3.0390299319056711e-05 0.0000000000000000e+00  -2.7838451490315042e-02 5.2595161094371919e-05 0.0000000000000000e+00  -2.4433958836612306e-02 2.0318977636526802e-04 0.0000000000000000e+00  -2.1924662654649842e-04 -2.7404287035783865e-02 0.0000000000000000e+00  -2.0399471057126587e-04 -2.4235117616568682e-02 0.0000000000000000e+00  -2.7394662206435053e-02 5.4099388653582612e-04 0.0000000000000000e+00  2.7880116494657419e-02 2.1803704345312720e-05 0.0000000000000000e+00  8.7469759266882960e-06 2.7800916389896811e-02 0.0000000000000000e+00  2.7404387574023473e-02 4.4776066815673177e-04 0.0000000000000000e+00  -3.2388911983899267e-03 1.7122658490671155e-02 0.0000000000000000e+00  0.0000000000000000e+00 0.0000000000000000e+00 0.0000000000000000e+00  0.0000000000000000e+00 0.0000000000000000e+00 0.0000000000000000e+00  0.0000000000000000e+00 0.0000000000000000e+00 0.0000000000000000e+00  -9.4561140343430736e-06 2.7877509696882283e-02 0.0000000000000000e+00  2.4844051830790800e-05 2.7744830350186434e-02 0.0000000000000000e+00  3.1636040722800471e-05 -2.7783320937483907e-02 0.0000000000000000e+00  -2.7669511849255035e-02 -8.1538692724972976e-06 0.0000000000000000e+00  0.0000000000000000e+00 0.0000000000000000e+00 0.0000000000000000e+00  -8.5669771290837367e-06 -2.7842800129521360e-02 0.0000000000000000e+00  0.0000000000000000e+00 0.0000000000000000e+00 0.0000000000000000e+00  -2.4333021101246154e-02 -2.9511260886979625e-05 0.0000000000000000e+00  -4.8827762776374675e-05 -2.7764055905606884e-02 0.0000000000000000e+00  -2.2125357230132281e-03 2.5564853349028121e-02 0.0000000000000000e+00  -3.6724849568770400e-03 2.7092976282300691e-02 0.0000000000000000e+00  -2.7862785202292194e-02 4.1981534913087705e-06 0.0