<?xml version="1.0"?>
<VTKFile type="UnstructuredGrid"  version="0.1"  >
<UnstructuredGrid>
<Piece  NumberOfPoints="778" NumberOfCells="1401">
<Points>
<DataArray  type="Float64"  NumberOfComponents="3"  format="ascii">1 -1 0  6 -1 0  6 1 0  1 1 0  1 6 0  -1 6 0  -1 1 0  -6 1 0  -6 -1 0  -1 -1 0  -1 -6 0  1 -6 0  1 3.5 0  -1 3.5 0  -1 -3.5 0  1 -3.5 0  3.5 -1 0  3.5 1 0  -3.5 -1 0  -3.5 1 0  -1 -2.25 0  1 -2.25 0  2.25 -1 0  2.25 1 0  -1 2.25 0  1 2.25 0  -1 4.75 0  1 4.75 0  -4.75 -1 0  -4.75 1 0  -2.25 1 0  -2.25 -1 0  1 -4.75 0  -1 -4.75 0  4.75 1 0  4.75 -1 0  0 0 0  -2.875 0 0  -1.625 0 0  -4.125 0 0  -6 0 0  0 2.875 0  2.875 0 0  0 6 0  1.625 0 0  0 -2.875 0  0 -1.625 0  0 1.625 0  0 4.125 0  0 -6 0  0 -4.125 0  4.125 0 0  6 0 0  -0.109375 5.0625 0  -5.0625 -0.109375 0  -0.109375 -5.0625 0  5.0625 0.109375 0  0.8125 -0.1875 0  -0.1875 -0.8125 0  -0.8125 0.1875 0  -0.1875 0.8125 0  1 5.375 0  -5.375 1 0  1 -5.375 0  5.375 -1 0  0.53515625 0.46484375 0  -5.375 -1 0  -1 5.375 0  -1 -5.375 0  -0.5 -6 0  5.375 1 0  6 0.5 0  3.5 0.3046875 0  3.43125 -0.34765625 0  2.875 -1 0  4.125 1 0  0.3046875 3.5 0  -0.34765625 3.56875 0  -1 4.125 0  1 4.125 0  -0.3046875 2.25 0  0.34765625 2.18125 0  1 1.625 0  -1 -1.625 0  -0.3046875 -3.5 0  0.34765625 -3.56875 0  1 -4.125 0  0.3046875 -2.25 0  -0.34765625 -2.18125 0  -1 -4.125 0  -1 -2.875 0  1 -2.875 0  1 -1.625 0  1.625 -1 0  1.625 1 0  2.25 0.3046875 0  2.18125 -0.34765625 0  4.125 -1 0  2.875 1 0  1 2.875 0  -1 1.625 0  -1 2.875 0  -4.125 -1 0  -2.25 0.3046875 0  -2.31875 -0.34765625 0  -2.875 -1 0  -1.625 1 0  -4.125 1 0  -3.5 0.3046875 0  -3.56875 -0.34765625 0  -1.625 -1 0  -2.875 1 0  0.380626321794301 1.06853329530276 0  -1.110819327731092 -0.3739495798319328 0  0.3739495798319328 -1.110819327731092 0  1.151210293219304 0.3991939332620648 0  -0.5 -4.4375 0  0.5 -4.4375 0  5.481553398058253 -0.3712833737864077 0  0.5 4.4375 0  0.5 6 0  -0.522503783594538 -0.3265648647465863 0  -1.3125 0.5 0  -0.5 6 0  0.3265648647465863 -0.522503783594538 0  4.4375 0.5 0  4.4375 -0.5 0  0.5 -6 0  -6 -0.5 0  -5.481553398058253 0.3712833737864077 0  -4.55 -0.4296875 0  -4.4375 0.5 0  -0.5 4.4375 0  0.4792930825242718 5.026881067961165 0  0.4792930825242718 -5.026881067961165 0  -0.5 1.3125 0  1.3125 -0.5 0  -0.5 -1.3125 0  0.25 5.518539952962044 0  0.2125133872612723 -5.500076563152851 0  4.969341874373811 -0.5152550785163683 0  -4.969341874373811 0.5152550785163683 0  3.927189744345589 -0.4712876597840069 0  -5.554036458333333 -0.25 0  5.554036458333333 0.25 0  -0.4690710616438356 -5.462756849315069 0  -0.4690710616438356 5.462756849315069 0  -6 0.5 0  -1.59556436210848 -0.5 0  -3.058421751829955 -0.5 0  -0.5 2.731982421875 0  0.5 2.691578248170045 0  2.691578248170045 -0.5 0  1.641211254104555 0.5 0  0.5 -1.768017578125 0  0.5 -3.058421751829955 0  0.5 1.699267578125 0  3.018017578125 0.5 0  -0.5 -3.018017578125 0  -2.731982421875 0.5 0  6 -0.5 0  -4.050017120925308 -0.5006099332648871 0  -3.940668202764977 0.5371363767281105 0  3.940668202764977 0.5371363767281105 0  0.4517449476047904 3.958458083832335 0  -0.4517449476047904 -3.958458083832335 0  -1.809331797235023 0.5371363767281105 0  -0.4517449476047904 1.791541916167665 0  -0.0546875 4.59375 0  -5.006445312499999 -0.58984375 0  4.605643203883496 -0.04725424757281554 0  4.90625 0.5546875 0  -0.5546875 4.90625 0  0.04725424757281554 -4.605643203883496 0  -0.586116118210531 -4.995821561900013 0  -4.603710222472543 0.04846236095466061 0  -3.1875 0.65234375 0  0.6163907621110913 3.147502300973589 0  2.5625 0.65234375 0  0.6163907621110913 -2.602497699026411 0  -0.637456713551384 3.189259902731882 0  -0.637456713551384 -2.560740097268118 0  -0.34765625 0.34765625 0  -0.639453125 0.708203125 0  0.089630126953125 0.437286376953125 0  -0.4238281249999999 -1.746875 0  1.746875 -0.4238281249999999 0  -0.4238281249999999 4.003125 0  0.4238281249999999 -4.003125 0  -2.5625 -1 0  3.1875 -1 0  -0.09375 -1.21875 0  1.21875 -0.09375 0  0.4020305405760241 -0.1120343241705621 0  -0.6280191027904287 -0.7577505545748082 0  0.90625 -0.59375 0  -1.205500904741459 0.03633725387965409 0  -0.02129048848213058 1.202028574265107 0  -0.1120343241705621 -0.4020305405760241 0  1 1.3125 0  -2.003587563743074 -0.6442361556699288 0  0.6640077663259718 -1.395873598614549 0  5.6875 -1 0  0.6308138580859101 -5.592151086468728 0  -5.6875 -1 0  0.6568032075915271 5.612942566073222 0  5.616530031741774 0.6612875396772174 0  -5.6875 1 0  1.9375 1 0  -1.3125 -1 0  0.1524679547155687 -3.232579139388032 0  0.1524679547155687 2.517420860611968 0  -3.232579139388032 -0.1524679547155687 0  -1.932320553757026 -0.252759244693845 0  2.517420860611968 -0.1524679547155687 0  -0.04776045819569434 -2.464949198504599 0  -0.2420369079104247 3.187693796852321 0  3.751304711039982 -0.1203080877045035 0  -5.397601941771943 -0.609026059866711 0  1.3125 1 0  1.9375 -1 0  -0.6946315101963667 -2.018229242739021 0  -0.6946315101963667 3.731770757260979 0  1 -3.8125 0  2.014364435550335 0.6166648446293641 0  -1 5.6875 0  -1 -5.6875 0  -2.653476149871182 -0.5942957192996303 0  3.096523850128818 -0.5942957192996303 0  1 1.9375 0  -3.8125 -1 0  0.586975531244212 -0.7975955463807081 0  -0.2946248980953088 -4.743710873809568 0  2.625453376770019 0.2814788818359375 0  -3.124546623229981 0.2814788818359375 0  -0.1204856417894853 5.631800603217465 0  5.253862011026742 0.6581468962876398 0  -0.65234375 2.108701557941197 0  0.65234375 3.641298442058803 0  -0.65234375 -3.641298442058803 0  -0.25 -5.744880569758637 0  -4.4375 -1 0  -0.3166212631734941 -2.713595940002554 0  0.6591479224207506 0.1324305912687024 0  0.8660781906552419 0.6468634238104103 0  -0.9887189158197679 0.6452930723873549 0  0.3149351927204296 -1.460971774996065 0  -0.3572852727880474 -0.009629022788047503 0  2.09375 -0.6866724363772454 0  0.6866724363772454 -3.65625 0  0.6866724363772454 2.09375 0  -3.65625 -0.6866724363772454 0  -3.5371337890625 0.65234375 0  -0.1389584113023952 1.944025352615082 0  -2.151744288472698 0.65234375 0  -0.1389584113023951 -3.805974647384918 0  0.1389584113023951 3.805974647384918 0  -2.578772109813904 0.1857224367977529 0  3.171227890186096 0.1857224367977529 0  3.360315647536819 0.65234375 0  0.1857224367977528 -1.921227890186096 0  0.65234375 -2.110315647536819 0  1.894016528727564 0.2415406141485869 0  -3.738232421875 0 0  0.2516875549238616 3.139069895099618 0  -1.913724396854074 0.2011142179916434 0  0.1669456568161915 0.7843410671359501 0  -2.5625 1 0  -1 -3.1875 0  -1 2.5625 0  0.1736601499778735 4.857955663330752 0  -0.1893536587212888 2.577300639071919 0  -0.1893536587212888 -3.172699360928081 0  3.852271904453858 0.206603749322895 0  -3.8125 1 0  -0.1250095034621793 -5.421707592768541 0  3.8125 -1 0  3.617304217264373 -0.6578427703661498 0  0.2630176195580202 -2.636558318495885 0  0.2674330357770522 1.399517071108871 0  0.631726413079416 1.339254523727593 0  4.700571879807737 0.2813704945051134 0  0.7143844363649634 -3.319538455208831 0  2.430461544791169 -0.7143844363649634 0  0.7143844363649634 2.430461544791169 0  -3.319538455208831 -0.7143844363649634 0  5.687045771608623 -0.6520598572553891 0  -5.687045771608623 0.6520598572553891 0  -1.15625 -0.7048248829733235 0  3.438284572973296 -0.01860298867862281 0  -0.03021088078697859 3.451572359862192 0  2.216682837011589 -0.02159585961918548 0  -2.191580885932936 -0.03126387444658879 0  0.1857410764408683 1.895679405349457 0  3.103473238297955 -0.253270943723272 0  -2.646526761702045 -0.253270943723272 0  -2.333137350671861 -0.6791984914172315 0  -1 5.0625 0  -0.6971235589909319 5.213002544375844 0  0.01618705363819947 2.225929180591695 0  0.01618705363819947 -3.524070819408305 0  0.5690054882403073 0.7951310720450595 0  -0.5764940424412852 -3.329579265180942 0  -0.5764940424412852 2.420420734819058 0  3.8125 1 0  -5.372163860234628 0.04365139563106807 0  5.164108319316826 -0.225040894204947 0  -5.361952437854323 0.6744012088984681 0  -5.0625 1 0  5.286835586913878 -0.6616705837083201 0  -5.692815197359722 0.1186699900166531 0  5.663425996156958 -0.07763197815533956 0  -0.9219866027132193 -0.1143045829323572 0  -1.394333629759332 -0.2233077430199216 0  0.09322478991596644 -0.9616596638655462 0  5.0625 -1 0  -0.14412109375 -1.92169189453125 0  -4.28125 -0.7212148987671345 0  0.2649796277366407 0.1735162902120744 0  -4.907855692236596 0.1868230509619793 0  -1.9375 1 0  1 5.0625 0  0.6915124486819284 -5.272938212550202 0  0.683483242673902 5.284948082526911 0  2.5625 -1 0  -1 -3.8125 0  -1 1.9375 0  5.0625 1 0  -1 -1.9375 0  1 5.6875 0  1 -5.6875 0  -1.9375 -1 0  -1 -2.5625 0  -1 3.1875 0  1 -3.1875 0  1 -2.5625 0  1 2.5625 0  1 3.1875 0  -5.0625 -1 0  -1 -1.3125 0  1.3125 -1 0  -1 1.3125 0  -1 3.8125 0  -1 4.4375 0  -4.4375 1 0  4.4375 -1 0  4.4375 1 0  -1.3125 1 0  1 4.4375 0  1 -4.4375 0  -1 -5.0625 0  -1 -4.4375 0  -3.1875 1 0  2.5625 1 0  1 -1.9375 0  1 -1.3125 0  5.6875 1 0  1 3.8125 0  3.1875 1 0  -3.1875 -1 0  1 -5.0625 0  1.35138038998199 0.6675097549271188 0  -0.465625 0.986328125 0  1.435958105992309 0.2563920171199723 0  1.915914614192913 -0.145782394639918 0  -0.8764440609469509 -0.5746869313612541 0  5.355194559946098 0.01566259380337612 0  -5.69333042954964 -0.5242868300459975 0  1.78125 -0.7320750794491524 0  0.7320750794491525 -3.96875 0  -0.3959075548864684 5.166422468926435 0  -4.770522389068053 -0.2123670725088856 0  -4.714160156249999 -0.69234375 0  -4.273484403713342 -0.278160994327167 0  0.9642590244517505 0.08196089404241463 0  0.3500261717645397 -4.727285205957206 0  0.6740868006020392 -4.765147848348443 0  0.6797550207247084 -1.089747806381148 0  -5.186479934354063 0.3046329157552757 0  -5.263288238215326 -0.3369092276308425 0  -2.433484016245305 0.5442571297016638 0  0.1707808983307866 -3.82363304980935 0  -0.1554012991031027 3.867535742674252 0  4.855508096805579 -0.2283975605264581 0  3.644517238097614 0.5646428152488787 0  0.05699603874439441 -0.6452791208413911 0  -0.3550018917972689 -0.5695324323732931 0  0.6
[...]
<PointData  Vectors="u"> 
<DataArray  type="Float64"  Name="u"  NumberOfComponents="3" format="ascii">0.0000000000000000e+00 0.0000000000000000e+00 0.0000000000000000e+00  0.0000000000000000e+00 0.0000000000000000e+00 0.0000000000000000e+00  0.0000000000000000e+00 0.0000000000000000e+00 0.0000000000000000e+00  0.0000000000000000e+00 0.0000000000000000e+00 0.0000000000000000e+00  0.0000000000000000e+00 0.0000000000000000e+00 0.0000000000000000e+00  0.0000000000000000e+00 0.0000000000000000e+00 0.0000000000000000e+00  0.0000000000000000e+00 0.0000000000000000e+00 0.0000000000000000e+00  0.0000000000000000e+00 0.0000000000000000e+00 0.0000000000000000e+00  0.0000000000000000e+00 0.0000000000000000e+00 0.0000000000000000e+00  0.0000000000000000e+00 0.0000000000000000e+00 0.0000000000000000e+00  0.0000000000000000e+00 0.0000000000000000e+00 0.0000000000000000e+00  0.0000000000000000e+00 0.0000000000000000e+00 0.0000000000000000e+00  0.0000000000000000e+00 0.0000000000000000e+00 0.0000000000000000e+00  0.0000000000000000e+00 0.0000000000000000e+00 0.0000000000000000e+00  0.0000000000000000e+00 0.0000000000000000e+00 0.0000000000000000e+00  0.0000000000000000e+00 0.0000000000000000e+00 0.0000000000000000e+00  0.0000000000000000e+00 0.0000000000000000e+00 0.0000000000000000e+00  0.0000000000000000e+00 0.0000000000000000e+00 0.0000000000000000e+00  0.0000000000000000e+00 0.0000000000000000e+00 0.0000000000000000e+00  0.0000000000000000e+00 0.0000000000000000e+00 0.0000000000000000e+00  0.0000000000000000e+00 0.0000000000000000e+00 0.0000000000000000e+00  0.0000000000000000e+00 0.0000000000000000e+00 0.0000000000000000e+00  0.0000000000000000e+00 0.0000000000000000e+00 0.0000000000000000e+00  0.0000000000000000e+00 0.0000000000000000e+00 0.0000000000000000e+00  0.0000000000000000e+00 0.0000000000000000e+00 0.0000000000000000e+00  0.0000000000000000e+00 0.0000000000000000e+00 0.0000000000000000e+00  0.0000000000000000e+00 0.0000000000000000e+00 0.0000000000000000e+00  0.0000000000000000e+00 0.0000000000000000e+00 0.0000000000000000e+00  0.0000000000000000e+00 0.0000000000000000e+00 0.0000000000000000e+00  0.0000000000000000e+00 0.0000000000000000e+00 0.0000000000000000e+00  0.0000000000000000e+00 0.0000000000000000e+00 0.0000000000000000e+00  0.0000000000000000e+00 0.0000000000000000e+00 0.0000000000000000e+00  0.0000000000000000e+00 0.0000000000000000e+00 0.0000000000000000e+00  0.0000000000000000e+00 0.0000000000000000e+00 0.0000000000000000e+00  0.0000000000000000e+00 0.0000000000000000e+00 0.0000000000000000e+00  0.0000000000000000e+00 0.0000000000000000e+00 0.0000000000000000e+00  -1.3648018713644062e-04 4.3110353485635415e-05 0.0000000000000000e+00  2.3240714437673924e-02 -6.3832602639615153e-06 0.0000000000000000e+00  2.2114761597997006e-02 5.8652166103775842e-05 0.0000000000000000e+00  2.3254546277136245e-02 2.8018686312392777e-07 0.0000000000000000e+00  2.3279067755316993e-02 1.9907718906337307e-05 0.0000000000000000e+00  5.5937877646896693e-06 2.3206266359699197e-02 0.0000000000000000e+00  -2.3185983418066127e-02 2.6016312123595805e-05 0.0000000000000000e+00  2.0774782272457293e-05 2.3207437150973335e-02 0.0000000000000000e+00  -2.2160441506664560e-02 7.6081317778466388e-05 0.0000000000000000e+00  7.0704752001937759e-06 -2.3206575510892721e-02 0.0000000000000000e+00  -2.6875477169633246e-05 -2.1995153419062528e-02 0.0000000000000000e+00  2.4013702659757146e-05 2.1987984204845483e-02 0.0000000000000000e+00  2.3254967151347406e-05 2.3214470211597567e-02 0.0000000000000000e+00  2.2691415150867697e-05 -2.3208090722142648e-02 0.0000000000000000e+00  3.2291787141032991e-05 -2.3245225276330033e-02 0.0000000000000000e+00  -2.3265869026818063e-02 -4.8528153622351168e-06 0.0000000000000000e+00  -2.3232795906022459e-02 -2.2367089161833395e-05 0.0000000000000000e+00  -2.5329200632294911e-05 2.3270016780242091e-02 0.0000000000000000e+00  2.3210176784009426e-02 -2.2332573316140278e-05 0.0000000000000000e+00  -3.5126551734683415e-05 -2.3072395584326850e-02 0.0000000000000000e+00  -2.3147279377511112e-02 -2.6097209245443554e-05 0.0000000000000000e+00  -1.4945080222151338e-02 -3.1739209437581417e-03 0.0000000000000000e+00  2.9302184883114612e-03 -1.4600381724447536e-02 0.0000000000000000e+00  1.4548713609405137e-02 3.1877370564386233e-03 0.0000000000000000e+00  3.1296329596146592e-03 1.4619797537988862e-02 0.0000000000000000e+00  0.0000000000000000e+00 0.0000000000000000e+00 0.0000000000000000e+00  0.0000000000000000e+00 0.0000000000000000e+00 0.0000000000000000e+00  0.0000000000000000e+00 0.0000000000000000e+00 0.0000000000000000e+00  0.0000000000000000e+00 0.0000000000000000e+00 0.0000000000000000e+00  -1.0324695426925172e-02 8.6009935161524328e-03 0.0000000000000000e+00  0.0000000000000000e+00 0.0000000000000000e+00 0.0000000000000000e+00  0.0000000000000000e+00 0.0000000000000000e+00 0.0000000000000000e+00  0.0000000000000000e+00 0.0000000000000000e+00 0.0000000000000000e+00  4.3307547997822654e-05 -2.2163867960166100e-02 0.0000000000000000e+00  0.0000000000000000e+00 0.0000000000000000e+00 0.0000000000000000e+00  -2.3167933609343844e-02 -3.5380228022659143e-06 0.0000000000000000e+00  -2.3033379266020986e-02 3.7951929669913693e-05 0.0000000000000000e+00  -2.2966177793992307e-02 -5.7790772348268952e-06 0.0000000000000000e+00  0.0000000000000000e+00 0.0000000000000000e+00 0.0000000000000000e+00  0.0000000000000000e+00 0.0000000000000000e+00 0.0000000000000000e+00  1.1070718320648405e-05 2.3144654038449345e-02 0.0000000000000000e+00  -7.8376468702517891e-06 2.3140846093950430e-02 0.0000000000000000e+00  0.0000000000000000e+00 0.0000000000000000e+00 0.0000000000000000e+00  0.0000000000000000e+00 0.0000000000000000e+00 0.0000000000000000e+00  1.1270011714741148e-04 2.2926507009495795e-02 0.0000000000000000e+00  -1.8990776846261948e-04 2.3067182704052586e-02 0.0000000000000000e+00  0.0000000000000000e+00 0.0000000000000000e+00 0.0000000000000000e+00  0.0000000000000000e+00 0.0000000000000000e+00 0.0000000000000000e+00  3.8126245795935425e-05 -2.3050185981909121e-02 0.0000000000000000e+00  7.9993431554602046e-06 -2.3170593020578823e-02 0.0000000000000000e+00  0.0000000000000000e+00 0.0000000000000000e+00 0.0000000000000000e+00  -1.0672428736200586e-04 -2.3114331907692159e-02 0.0000000000000000e+00  2.2905841901094319e-04 -2.3015966364076795e-02 0.0000000000000000e+00  0.0000000000000000e+00 0.0000000000000000e+00 0.0000000000000000e+00  0.0000000000000000e+00 0.0000000000000000e+00 0.0000000000000000e+00  0.0000000000000000e+00 0.0000000000000000e+00 0.0000000000000000e+00  0.0000000000000000e+00 0.0000000000000000e+00 0.0000000000000000e+00  0.0000000000000000e+00 0.0000000000000000e+00 0.0000000000000000e+00  0.0000000000000000e+00 0.0000000000000000e+00 0.0000000000000000e+00  -2.2853852092912904e-02 1.8204806166614946e-04 0.0000000000000000e+00  -2.3051672902677126e-02 -1.6140882186087003e-04 0.0000000000000000e+00  0.0000000000000000e+00 0.0000000000000000e+00 0.0000000000000000e+00  0.0000000000000000e+00 0.0000000000000000e+00 0.0000000000000000e+00  0.0000000000000000e+00 0.0000000000000000e+00 0.0000000000000000e+00  0.0000000000000000e+00 0.0000000000000000e+00 0.0000000000000000e+00  0.0000000000000000e+00 0.0000000000000000e+00 0.0000000000000000e+00  0.0000000000000000e+00 0.0000000000000000e+00 0.0000000000000000e+00  2.2855630362999788e-02 2.0681078853150730e-04 0.0000000000000000e+00  2.2932143908573083e-02 -1.3537459651505841e-04 0.0000000000000000e+00  0.0000000000000000e+00 0.0000000000000000e+00 0.0000000000000000e+00  0.0000000000000000e+00 0.0000000000000000e+00 0.0000000000000000e+00  0.0000000000000000e+00 0.0000000000000000e+00 0.0000000000000000e+00  2.2893492726704812e-02 3.7890186825932422e-05 0.0000000000000000e+00  2.3192387023389983e-02 1.0692136606694312e-05 0.0000000000000000e+00  0.0000000000000000e+00 0.0000000000000000e+00 0.0000000000000000e+00  0.0000000000000000e+00 0.0000000000000000e+00 0.0000000000000000e+00  -4.2931892251096195e-03 1.9256674815864561e-02 0.0000000000000000e+00  1.9865644035321716e-02 -4.3689015221688192e-03 0.0000000000000000e+00  -3.9872781541924239e-03 -2.0119345753467379e-02 0.0000000000000000e+00  -2.0334532780778188e-02 3.8582449255700284e-03 0.0000000000000000e+00  3.3331511789519506e-05 -2.2017185013657035e-02 0.0000000000000000e+00  -6.0186310228308042e-06 -2.3135526042885064e-02 0.0000000000000000e+00  -2.3021782554283114e-02 -2.5770793158957033e-05 0.0000000000000000e+00  -6.1975918927353209e-07 2.3097987014538548e-02 0.0000000000000000e+00  4.5262689653001510e-05 2.2967031522941397e-02 0.0000000000000000e+00  9.7423565607242836e-03 -6.0970397301123129e-03 0.0000000000000000e+00  2.2124683677058492e-02 3.1735279654429029e-03 0.0000000000000000e+00  3.0610831273436642e-05 2.2134473320576820e-02 0.0000000000000000e+00  -5.7286060880662182e-03 -9.6265014370989777e-03 0.0000000000000000e+00  -2.2885233873180550e-02 1.9452615272396307e-05 0.0000000000000000e+00  -2.3150267798752271e-02 9.4584678377297649e-06 0.0000000000000000e+00  4.6032113617755221e-05 -2.2904070378552938e-02 0.0000000000000000e+00  2.3194991611365446e-02 1.0197470349052984e-05 0.0000000000000000e+00  2.2973317110708047e-02 3.0432193174934632e-05 0.0000000000000000e+00  2.3113937155133091e-02 5.4363465739327876e-06 0.0000000000000000e+00  2.1849053420903021e-02 -9.6306056582681678e-06 0.0000000000000000e+00  3.0946289402698791e-05 2.2932656188968774e-02 0.0000000000000000e+00  -2.9842069932378430e-05 2.3135729581181610e-02 0.0000000000000000e+00  -1.1992686615384791e-05 -2.3036380939002673e-02 0.0000000000000000e+00  3.6123762414248723e-03 2.2834958984410913e-02 0.0000000000000000e+00  -2.2348371680966747e-02 -3.3771348536011550e-03 0.0000000000000000e+00  3.1326381011760702e-03 -2.2166490832143785e-02 0.0000000000000000e+00  1.7262711989324423e-05 2.3153178892822358e-02 0.0000000000000000e+00  -9.8511753776857161e-06 -2.3262309077620016e-02 0.0000000000000000e+00  -2.3169248194379193e-02 -4.7115812016209364e-05 0.0000000000000000e+00  2.1934884446757352e-02 1.4079442718428124e-05 0.0000000000000000e+00  -2.2992221250784008e-02 -1.1397071259255738e-05 0.0000000000000000e+00  2.3051580540305865e-02 -7.9791990756045112e-06 0.0000000000000000e+00  -2.3167984350979182e-02 -6.1962087354788605e-05 0.0000000000000000e+00  8.3267496207697880e-06 -2.3001313228533882e-02 0.0000000000000000e+00  2.9688682414571885e-06 2.2979943356944740e-02 0.0000000000000000e+00  2.2328716798392177e-02 6.5016128914200172e-05 0.0000000000000000e+00  2.2960173943971381e-02 -1.2968003906018077e-03 0.0000000000000000e+00  2.3074364218288970e-02 -1.3483665653095213e-06 0.0000000000000000e+00  1.4070055580565123e-05 2.3033643615130557e-02 0.0000000000000000e+00  -5.7197729624383306e-05 2.2943267880309041e-02 0.0000000000000000e+00  -2.3033560018323896e-02 -7.6384447328643171e-06 0.0000000000000000e+00  -2.2997548964863737e-02 1.3195291672614589e-03 0.0000000000000000e+00  -8.6511556028635438e-04 -2.2984731741704754e-02 0.0000000000000000e+00  1.0310575901466777e-05 -2.2944451583592897e-02 0.0000000000000000e+00  -9.5741620567557585e-04 2.3153343839513275e-02 0.0000000000000000e+00  -2.3105723691102361e-02 6.2010556900991750e-05 0.0000000000000000e+00  3.3517546048984537e-05 -2.3011148110344836e-02 0.0000000000000000e+00  2.2947425015364113e-02 2.7727159225383213e-06 0.0000000000000000e+00  -2.2134810390682481e-02 -4.9341151181026162e-06 0.0000000000000000e+00  2.3147075442997662e-02 -3.3906729317011368e-06 0.0000000000000000e+00  2.2040418202711704e-02 -8.2706643432849106e-05 0.0000000000000000e+00  -2.2064781600716545e-02 -1.7078568412237337e-04 0.0000000000000000e+00  2.7071070058026975e-05 2.2987594715387714e-02 0.0000000000000000e+00  3.7512165975697002e-05 -2.2960754448869396e-02 0.0000000000000000e+00  2.2044988906467243e-02 6.8432366879365200e-04 0.0000000000000000e+00  7.5445499153959218e-04 2.2791474819021402e-02 0.0000000000000000e+00  2.9823960851151928e-05 2.3215961953272718e-02 0.0000000000000000e+00  2.2221247943154769e-02 1.8328528827655478e-06 0.0000000000000000e+00  -2.3251883228993974e-02 -5.7091816533664025e-06 0.0000000000000000e+00  -2.0065101106358521e-02 4.5173874949257200e-05 0.0000000000000000e+00  2.4411142996467410e-05 1.9363633991092453e-02 0.0000000000000000e+00  -4.0436868903148519e-06 -2.3258454040984443e-02 0.0000000000000000e+00  -7.2798745281541915e-05 -1.9747767795608530e-02 0.0000000000000000e+00  2.3247004499551863e-02 -1.1991495962017238e-05 0.0000000000000000e+00  1.9472903126249993e-02 3.5835705968127441e-05 0.0000000000000000e+00  -1.2334120339071772e-06 2.0143706789766468e-02 0.0000000000000000e+00  -2.2534666106167282e-02 1.4364716442017594e-04 0.0000000000000000e+00  -4.0705422698971431e-05 -2.0122648066124037e-02 0.0000000000000000e+00  8.0531363160074677e-05 2.0136097342653755e-02 0.0000000000000000e+00  -1.0537234436593029e-05 -1.9889591188946735e-02 0.0000000000000000e+00  6.3674268073897781e-03 6.1792258814149671e-03 0.0000000000000000e+00  1.1996110787384070e-02 1.3989735689329767e-02 0.0000000000000000e+00  -1.5822851403197600e-03 7.9940001946661420e-03 0.0000000000000000e+00  8.9189924750373033e-04 -2.2798423255049736e-02 0.0000000000000000e+00  -2.2757056759313981e-02 -7.9737484474174736e-04 0.0000000000000000e+00  -1.2462049949765991e-05 2.2947367138917683e-02 0.0000000000000000e+00  7.8770852968854497e-06 -2.2991032965658104e-02 0.0000000000000000e+00  0.0000000000000000e+00 0.0000000000000000e+00 0.0000000000000000e+00  0.0000000000000000e+00 0.0000000000000000e+00 0.0000000000000000e+00  1.0518016182651136e-03 -1.9642399421100163e-02 0.0000000000000000e+00  -1.9748863265965689e-02 -6.2606312412853552e-04 0.0000000000000000e+00  -7.4601323600180730e-03 -1.9121266492537719e-03 0.0000000000000000e+00  1.2394629760643433e-02 -1.5936860937241639e-02 0.0000000000000000e+00  -1.9685560691203995e-02 -9.7490985509538965e-03 0.0000000000000000e+00  1.9717127512551089e-02 5.8256541545392187e-04 0.0000000000000000e+00  1.2436451480724343e-04 1.9462582463515378e-02 0.0000000000000000e+00  1.9640601924499723e-03 -7.3900428734086218e-03 0.0000000000000000e+00  0.0000000000000000e+00 0.0000000000000000e+00 0.0000000000000000e+00  2.0350352674597064e-02 -3.3609731805871586e-04 0.0000000000000000e+00  -2.4914449660725481e-03 -2.2996361100383545e-02 0.0000000000000000e+00  0.0000000000000000e+00 0.0000000000000000e+00 0.0000000000000000e+00  8.3692599722687226e-05 -2.0203139414517745e-02 0.0000000000000000e+00  0.0000000000000000e+00 0.0000000000000000e+00 0.0000000000000000e+00  1.0797541322595841e-04 2.0647056381428684e-02 0.0000000000000000e+00  -2.0721148855332477e-02 -1.6794077139195318e-04 0.0000000000000000e+00  0.0000000000000000e+00 0.0000000000000000e+00 0.0000000000000000e+00  0.0000000000000000e+00 0.0000000000000000e+00 0.0000000000000000e+00  0.0000000000000000e+00 0.0000000000000000e+00 0.0000000000000000e+00  1.3352494630631487e-05 -2.3200257227047428e-02 0.0000000000000000e+00  -4.1574212936482017e-05 2.3152828462015957e-02 0.0000000000000000e+00  2.3235454421888020e-02 5.4834540882936320e-06 0.0000000000000000e+00  2.2864469811630213e-02 -3.5982266362462545e-04 0.0000000000000000e+00  -2.3141463212268121e-02 -2.1944128188002566e-05 0.0000000000000000e+00  1.7253525819387264e-05 -2.3160386752583775e-02 0.0000000000000000e+00  2.5648490255754534e-05 2.3096132995843593e-02 0.0000000000000000e+00  -2.3251401205548226e-02 4.3674219810206116e-06 0.0000000000000000e+00  1.9733816814547139e-02 1.0829425734076471e-06 0.0000000000000000e+00  0.0000000000000000e+00 0.0000000000000000e+00 0.0000000000000000e+00  0.0000000000000000e+00 0.0000000000000000e+00 0.0000000000000000e+00  4.7363002060009970e-04 -2.0687929858659637e-02 0.0000000000000000e+00  -1.0687900204885562e-04 2.0662131759672860e-02 0.0000000000000000e+00  0.0000000000000000e+00 0.0000000000000000e+00 0.0000000000000000e+00  -2.2329690280669265e-02 3.0876493954177028e-04 0.0000000000000000e+00  0.0000000000000000e+00 0.0000000000000000e+00 0.0000000000000000e+00  0.0000000000000000e+00 0.0000000000000000e+00 0.0000000000000000e+00  2.2426733194782392e-02 6.1575279086910882e-05 0.0000000000000000e+00  -2.2266240347297656e-02 -2.8080562632148149e-05 0.0000000000000000e+00  0.0000000000000000e+00 0.0000000000000000e+00 0.0000000000000000e+00  0.0000000000000000e+00 0.0000000000000000e+00 0.0000000000000000e+00  -1.0797706783075265e-02 -1.6826050130151315e-02 0.0000000000000000e+00  -1.8015783408285366e-05 -2.2951701916119369e-02 0.0000000000000000e+00  -2.3016038569928024e-02 7.5229231505150303e-05 0.0000000000000000e+00  2.3129072744416161e-02 1.7278550821865610e-06 0.0000000000000000e+00  1.9094960882178201e-05 2.3233834730554740e-02 0.0000000000000000e+00  -2.0660475327478743e-02 -1.0516451229529173e-04 0.0000000000000000e+00  1.3778158164028380e-04 2.0398199513437264e-02 0.0000000000000000e+00  -1.2942720608994458e-05 2.0301739301674213e-02 0.0000000000000000e+00  6.6007620374969325e-05 -2.0299056768963916e-02 0.0000000000000000e+00  2.4529391017861605e-05 -2.3021384181860095e-02 0.0000000000000000e+00  0.0000000000000000e+00 0.0000000000000000e+00 0.0000000000000000e+00  4.0921773593687551e-06 -2.2965670326069419e-02 0.0000000000000000e+00  -1.1876875172409578e-02 2.4261965429892775e-03 0.0000000000000000e+00  -1.7948739003318503e-02 1.2072271387827717e-02 0.0000000000000000e+00  2.0777973076082049e-02 9.7182547365722727e-03 0.0000000000000000e+00  -1.6878115294997518e-03 -2.1803972081099510e-02 0.0000000000000000e+00  6.4255302767431480e-03 1.1547262744848864e-04 0.0000000000000000e+00  -2.0893352831015746e-02 -2.1565202343622292e-04 0.0000000000000000e+00  7.1484272890220782e-06 -2.0894833047546833e-02 0.0000000000000000e+00  -2.2746545742691584e-04 2.0879116103501124e-02 0.0000000000000000e+00  2.0658305864985741e-02 2.7121060667755426e-05 0.0000000000000000e+00  2.0631492230348228e-02 1.9106839179150143e-06 0.0000000000000000e+00  1.9072631634553102e-04 2.2871799596039757e-02 0.0000000000000000e+00  2.0688555741452976e-02 3.8000647806253889e-04 0.0000000000000000e+00  3.2101418373125094e-05 -2.3215523478899495e-02 0.0000000000000000e+00  2.0953426787214772e-05 2.3225415012738684e-02 0.0000000000000000e+00  2.3099639519430282e-02 2.8403659052386919e-05 0.0000000000000000e+00  -2.3210575274383489e-02 4.4197956080253071e-05 0.0000000000000000e+00  -2.0123121043967011e-02 1.6434798701281015e-04 0.0000000000000000e+00  -1.8426756633757382e-04 -2.2845126756358095e-02 0.0000000000000000e+00  -1.7764800078670905e-04 -1.9958423193933678e-02 0.0000000000000000e+00  -2.2827520929055371e-02 4.6056647009564506e-04 0.0000000000000000e+00  2.3243985270595950e-02 1.8333818557157561e-05 0.0000000000000000e+00  6.6280445958379815e-06 2.3168750102147508e-02 0.0000000000000000e+00  2.2840133380280316e-02 3.7993214661790768e-04 0.0000000000000000e+00  -2.6824097156412994e-03 1.4248916433958413e-02 0.0000000000000000e+00  0.0000000000000000e+00 0.0000000000000000e+00 0.0000000000000000e+00  0.0000000000000000e+00 0.0000000000000000e+00 0.0000000000000000e+00  0.0000000000000000e+00 0.0000000000000000e+00 0.0000000000000000e+00  -8.2485139394354035e-06 2.3244763484426126e-02 0.0000000000000000e+00  2.1430198607800260e-05 2.3128726563762615e-02 0.0000000000000000e+00  2.6268273618579240e-05 -2.3162339544164832e-02 0.0000000000000000e+00  -2.3042042386128933e-02 -9.3408229628827012e-06 0.0000000000000000e+00  0.0000000000000000e+00 0.0000000000000000e+00 0.0000000000000000e+00  -6.6163028179760208e-06 -2.3210735714464754e-02 0.0000000000000000e+00  0.0000000000000000e+00 0.0000000000000000e+00 0.0000000000000000e+00  -2.0078180934200645e-02 -2.6634629396475601e-05 0.0000000000000000e+00  -4.1300439488375001e-05 -2.3137726110953872e-02 0.0000000000000000e+00  -1.8724140413909362e-03 2.1287977030397112e-02 0.0000000000000000e+00  -3.1548923166222968e-03 2.2610378284771665e-02 0.0000000000000000e+00  -2.3218790170260371e-02 3.5875709824198452e-06 0