<?xml version="1.0"?>
<VTKFile type="UnstructuredGrid"  version="0.1"  >
<UnstructuredGrid>
<Piece  NumberOfPoints="778" NumberOfCells="1401">
<Points>
<DataArray  type="Float64"  NumberOfComponents="3"  format="ascii">1 -1 0  6 -1 0  6 1 0  1 1 0  1 6 0  -1 6 0  -1 1 0  -6 1 0  -6 -1 0  -1 -1 0  -1 -6 0  1 -6 0  1 3.5 0  -1 3.5 0  -1 -3.5 0  1 -3.5 0  3.5 -1 0  3.5 1 0  -3.5 -1 0  -3.5 1 0  -1 -2.25 0  1 -2.25 0  2.25 -1 0  2.25 1 0  -1 2.25 0  1 2.25 0  -1 4.75 0  1 4.75 0  -4.75 -1 0  -4.75 1 0  -2.25 1 0  -2.25 -1 0  1 -4.75 0  -1 -4.75 0  4.75 1 0  4.75 -1 0  0 0 0  -2.875 0 0  -1.625 0 0  -4.125 0 0  -6 0 0  0 2.875 0  2.875 0 0  0 6 0  1.625 0 0  0 -2.875 0  0 -1.625 0  0 1.625 0  0 4.125 0  0 -6 0  0 -4.125 0  4.125 0 0  6 0 0  -0.109375 5.0625 0  -5.0625 -0.109375 0  -0.109375 -5.0625 0  5.0625 0.109375 0  0.8125 -0.1875 0  -0.1875 -0.8125 0  -0.8125 0.1875 0  -0.1875 0.8125 0  1 5.375 0  -5.375 1 0  1 -5.375 0  5.375 -1 0  0.53515625 0.46484375 0  -5.375 -1 0  -1 5.375 0  -1 -5.375 0  -0.5 -6 0  5.375 1 0  6 0.5 0  3.5 0.3046875 0  3.43125 -0.34765625 0  2.875 -1 0  4.125 1 0  0.3046875 3.5 0  -0.34765625 3.56875 0  -1 4.125 0  1 4.125 0  -0.3046875 2.25 0  0.34765625 2.18125 0  1 1.625 0  -1 -1.625 0  -0.3046875 -3.5 0  0.34765625 -3.56875 0  1 -4.125 0  0.3046875 -2.25 0  -0.34765625 -2.18125 0  -1 -4.125 0  -1 -2.875 0  1 -2.875 0  1 -1.625 0  1.625 -1 0  1.625 1 0  2.25 0.3046875 0  2.18125 -0.34765625 0  4.125 -1 0  2.875 1 0  1 2.875 0  -1 1.625 0  -1 2.875 0  -4.125 -1 0  -2.25 0.3046875 0  -2.31875 -0.34765625 0  -2.875 -1 0  -1.625 1 0  -4.125 1 0  -3.5 0.3046875 0  -3.56875 -0.34765625 0  -1.625 -1 0  -2.875 1 0  0.380626321794301 1.06853329530276 0  -1.110819327731092 -0.3739495798319328 0  0.3739495798319328 -1.110819327731092 0  1.151210293219304 0.3991939332620648 0  -0.5 -4.4375 0  0.5 -4.4375 0  5.481553398058253 -0.3712833737864077 0  0.5 4.4375 0  0.5 6 0  -0.522503783594538 -0.3265648647465863 0  -1.3125 0.5 0  -0.5 6 0  0.3265648647465863 -0.522503783594538 0  4.4375 0.5 0  4.4375 -0.5 0  0.5 -6 0  -6 -0.5 0  -5.481553398058253 0.3712833737864077 0  -4.55 -0.4296875 0  -4.4375 0.5 0  -0.5 4.4375 0  0.4792930825242718 5.026881067961165 0  0.4792930825242718 -5.026881067961165 0  -0.5 1.3125 0  1.3125 -0.5 0  -0.5 -1.3125 0  0.25 5.518539952962044 0  0.2125133872612723 -5.500076563152851 0  4.969341874373811 -0.5152550785163683 0  -4.969341874373811 0.5152550785163683 0  3.927189744345589 -0.4712876597840069 0  -5.554036458333333 -0.25 0  5.554036458333333 0.25 0  -0.4690710616438356 -5.462756849315069 0  -0.4690710616438356 5.462756849315069 0  -6 0.5 0  -1.59556436210848 -0.5 0  -3.058421751829955 -0.5 0  -0.5 2.731982421875 0  0.5 2.691578248170045 0  2.691578248170045 -0.5 0  1.641211254104555 0.5 0  0.5 -1.768017578125 0  0.5 -3.058421751829955 0  0.5 1.699267578125 0  3.018017578125 0.5 0  -0.5 -3.018017578125 0  -2.731982421875 0.5 0  6 -0.5 0  -4.050017120925308 -0.5006099332648871 0  -3.940668202764977 0.5371363767281105 0  3.940668202764977 0.5371363767281105 0  0.4517449476047904 3.958458083832335 0  -0.4517449476047904 -3.958458083832335 0  -1.809331797235023 0.5371363767281105 0  -0.4517449476047904 1.791541916167665 0  -0.0546875 4.59375 0  -5.006445312499999 -0.58984375 0  4.605643203883496 -0.04725424757281554 0  4.90625 0.5546875 0  -0.5546875 4.90625 0  0.04725424757281554 -4.605643203883496 0  -0.586116118210531 -4.995821561900013 0  -4.603710222472543 0.04846236095466061 0  -3.1875 0.65234375 0  0.6163907621110913 3.147502300973589 0  2.5625 0.65234375 0  0.6163907621110913 -2.602497699026411 0  -0.637456713551384 3.189259902731882 0  -0.637456713551384 -2.560740097268118 0  -0.34765625 0.34765625 0  -0.639453125 0.708203125 0  0.089630126953125 0.437286376953125 0  -0.4238281249999999 -1.746875 0  1.746875 -0.4238281249999999 0  -0.4238281249999999 4.003125 0  0.4238281249999999 -4.003125 0  -2.5625 -1 0  3.1875 -1 0  -0.09375 -1.21875 0  1.21875 -0.09375 0  0.4020305405760241 -0.1120343241705621 0  -0.6280191027904287 -0.7577505545748082 0  0.90625 -0.59375 0  -1.205500904741459 0.03633725387965409 0  -0.02129048848213058 1.202028574265107 0  -0.1120343241705621 -0.4020305405760241 0  1 1.3125 0  -2.003587563743074 -0.6442361556699288 0  0.6640077663259718 -1.395873598614549 0  5.6875 -1 0  0.6308138580859101 -5.592151086468728 0  -5.6875 -1 0  0.6568032075915271 5.612942566073222 0  5.616530031741774 0.6612875396772174 0  -5.6875 1 0  1.9375 1 0  -1.3125 -1 0  0.1524679547155687 -3.232579139388032 0  0.1524679547155687 2.517420860611968 0  -3.232579139388032 -0.1524679547155687 0  -1.932320553757026 -0.252759244693845 0  2.517420860611968 -0.1524679547155687 0  -0.04776045819569434 -2.464949198504599 0  -0.2420369079104247 3.187693796852321 0  3.751304711039982 -0.1203080877045035 0  -5.397601941771943 -0.609026059866711 0  1.3125 1 0  1.9375 -1 0  -0.6946315101963667 -2.018229242739021 0  -0.6946315101963667 3.731770757260979 0  1 -3.8125 0  2.014364435550335 0.6166648446293641 0  -1 5.6875 0  -1 -5.6875 0  -2.653476149871182 -0.5942957192996303 0  3.096523850128818 -0.5942957192996303 0  1 1.9375 0  -3.8125 -1 0  0.586975531244212 -0.7975955463807081 0  -0.2946248980953088 -4.743710873809568 0  2.625453376770019 0.2814788818359375 0  -3.124546623229981 0.2814788818359375 0  -0.1204856417894853 5.631800603217465 0  5.253862011026742 0.6581468962876398 0  -0.65234375 2.108701557941197 0  0.65234375 3.641298442058803 0  -0.65234375 -3.641298442058803 0  -0.25 -5.744880569758637 0  -4.4375 -1 0  -0.3166212631734941 -2.713595940002554 0  0.6591479224207506 0.1324305912687024 0  0.8660781906552419 0.6468634238104103 0  -0.9887189158197679 0.6452930723873549 0  0.3149351927204296 -1.460971774996065 0  -0.3572852727880474 -0.009629022788047503 0  2.09375 -0.6866724363772454 0  0.6866724363772454 -3.65625 0  0.6866724363772454 2.09375 0  -3.65625 -0.6866724363772454 0  -3.5371337890625 0.65234375 0  -0.1389584113023952 1.944025352615082 0  -2.151744288472698 0.65234375 0  -0.1389584113023951 -3.805974647384918 0  0.1389584113023951 3.805974647384918 0  -2.578772109813904 0.1857224367977529 0  3.171227890186096 0.1857224367977529 0  3.360315647536819 0.65234375 0  0.1857224367977528 -1.921227890186096 0  0.65234375 -2.110315647536819 0  1.894016528727564 0.2415406141485869 0  -3.738232421875 0 0  0.2516875549238616 3.139069895099618 0  -1.913724396854074 0.2011142179916434 0  0.1669456568161915 0.7843410671359501 0  -2.5625 1 0  -1 -3.1875 0  -1 2.5625 0  0.1736601499778735 4.857955663330752 0  -0.1893536587212888 2.577300639071919 0  -0.1893536587212888 -3.172699360928081 0  3.852271904453858 0.206603749322895 0  -3.8125 1 0  -0.1250095034621793 -5.421707592768541 0  3.8125 -1 0  3.617304217264373 -0.6578427703661498 0  0.2630176195580202 -2.636558318495885 0  0.2674330357770522 1.399517071108871 0  0.631726413079416 1.339254523727593 0  4.700571879807737 0.2813704945051134 0  0.7143844363649634 -3.319538455208831 0  2.430461544791169 -0.7143844363649634 0  0.7143844363649634 2.430461544791169 0  -3.319538455208831 -0.7143844363649634 0  5.687045771608623 -0.6520598572553891 0  -5.687045771608623 0.6520598572553891 0  -1.15625 -0.7048248829733235 0  3.438284572973296 -0.01860298867862281 0  -0.03021088078697859 3.451572359862192 0  2.216682837011589 -0.02159585961918548 0  -2.191580885932936 -0.03126387444658879 0  0.1857410764408683 1.895679405349457 0  3.103473238297955 -0.253270943723272 0  -2.646526761702045 -0.253270943723272 0  -2.333137350671861 -0.6791984914172315 0  -1 5.0625 0  -0.6971235589909319 5.213002544375844 0  0.01618705363819947 2.225929180591695 0  0.01618705363819947 -3.524070819408305 0  0.5690054882403073 0.7951310720450595 0  -0.5764940424412852 -3.329579265180942 0  -0.5764940424412852 2.420420734819058 0  3.8125 1 0  -5.372163860234628 0.04365139563106807 0  5.164108319316826 -0.225040894204947 0  -5.361952437854323 0.6744012088984681 0  -5.0625 1 0  5.286835586913878 -0.6616705837083201 0  -5.692815197359722 0.1186699900166531 0  5.663425996156958 -0.07763197815533956 0  -0.9219866027132193 -0.1143045829323572 0  -1.394333629759332 -0.2233077430199216 0  0.09322478991596644 -0.9616596638655462 0  5.0625 -1 0  -0.14412109375 -1.92169189453125 0  -4.28125 -0.7212148987671345 0  0.2649796277366407 0.1735162902120744 0  -4.907855692236596 0.1868230509619793 0  -1.9375 1 0  1 5.0625 0  0.6915124486819284 -5.272938212550202 0  0.683483242673902 5.284948082526911 0  2.5625 -1 0  -1 -3.8125 0  -1 1.9375 0  5.0625 1 0  -1 -1.9375 0  1 5.6875 0  1 -5.6875 0  -1.9375 -1 0  -1 -2.5625 0  -1 3.1875 0  1 -3.1875 0  1 -2.5625 0  1 2.5625 0  1 3.1875 0  -5.0625 -1 0  -1 -1.3125 0  1.3125 -1 0  -1 1.3125 0  -1 3.8125 0  -1 4.4375 0  -4.4375 1 0  4.4375 -1 0  4.4375 1 0  -1.3125 1 0  1 4.4375 0  1 -4.4375 0  -1 -5.0625 0  -1 -4.4375 0  -3.1875 1 0  2.5625 1 0  1 -1.9375 0  1 -1.3125 0  5.6875 1 0  1 3.8125 0  3.1875 1 0  -3.1875 -1 0  1 -5.0625 0  1.35138038998199 0.6675097549271188 0  -0.465625 0.986328125 0  1.435958105992309 0.2563920171199723 0  1.915914614192913 -0.145782394639918 0  -0.8764440609469509 -0.5746869313612541 0  5.355194559946098 0.01566259380337612 0  -5.69333042954964 -0.5242868300459975 0  1.78125 -0.7320750794491524 0  0.7320750794491525 -3.96875 0  -0.3959075548864684 5.166422468926435 0  -4.770522389068053 -0.2123670725088856 0  -4.714160156249999 -0.69234375 0  -4.273484403713342 -0.278160994327167 0  0.9642590244517505 0.08196089404241463 0  0.3500261717645397 -4.727285205957206 0  0.6740868006020392 -4.765147848348443 0  0.6797550207247084 -1.089747806381148 0  -5.186479934354063 0.3046329157552757 0  -5.263288238215326 -0.3369092276308425 0  -2.433484016245305 0.5442571297016638 0  0.1707808983307866 -3.82363304980935 0  -0.1554012991031027 3.867535742674252 0  4.855508096805579 -0.2283975605264581 0  3.644517238097614 0.5646428152488787 0  0.05699603874439441 -0.6452791208413911 0  -0.3550018917972689 -0.5695324323732931 0  0.6
[...]
<PointData  Vectors="u"> 
<DataArray  type="Float64"  Name="u"  NumberOfComponents="3" format="ascii">0.0000000000000000e+00 0.0000000000000000e+00 0.0000000000000000e+00  0.0000000000000000e+00 0.0000000000000000e+00 0.0000000000000000e+00  0.0000000000000000e+00 0.0000000000000000e+00 0.0000000000000000e+00  0.0000000000000000e+00 0.0000000000000000e+00 0.0000000000000000e+00  0.0000000000000000e+00 0.0000000000000000e+00 0.0000000000000000e+00  0.0000000000000000e+00 0.0000000000000000e+00 0.0000000000000000e+00  0.0000000000000000e+00 0.0000000000000000e+00 0.0000000000000000e+00  0.0000000000000000e+00 0.0000000000000000e+00 0.0000000000000000e+00  0.0000000000000000e+00 0.0000000000000000e+00 0.0000000000000000e+00  0.0000000000000000e+00 0.0000000000000000e+00 0.0000000000000000e+00  0.0000000000000000e+00 0.0000000000000000e+00 0.0000000000000000e+00  0.0000000000000000e+00 0.0000000000000000e+00 0.0000000000000000e+00  0.0000000000000000e+00 0.0000000000000000e+00 0.0000000000000000e+00  0.0000000000000000e+00 0.0000000000000000e+00 0.0000000000000000e+00  0.0000000000000000e+00 0.0000000000000000e+00 0.0000000000000000e+00  0.0000000000000000e+00 0.0000000000000000e+00 0.0000000000000000e+00  0.0000000000000000e+00 0.0000000000000000e+00 0.0000000000000000e+00  0.0000000000000000e+00 0.0000000000000000e+00 0.0000000000000000e+00  0.0000000000000000e+00 0.0000000000000000e+00 0.0000000000000000e+00  0.0000000000000000e+00 0.0000000000000000e+00 0.0000000000000000e+00  0.0000000000000000e+00 0.0000000000000000e+00 0.0000000000000000e+00  0.0000000000000000e+00 0.0000000000000000e+00 0.0000000000000000e+00  0.0000000000000000e+00 0.0000000000000000e+00 0.0000000000000000e+00  0.0000000000000000e+00 0.0000000000000000e+00 0.0000000000000000e+00  0.0000000000000000e+00 0.0000000000000000e+00 0.0000000000000000e+00  0.0000000000000000e+00 0.0000000000000000e+00 0.0000000000000000e+00  0.0000000000000000e+00 0.0000000000000000e+00 0.0000000000000000e+00  0.0000000000000000e+00 0.0000000000000000e+00 0.0000000000000000e+00  0.0000000000000000e+00 0.0000000000000000e+00 0.0000000000000000e+00  0.0000000000000000e+00 0.0000000000000000e+00 0.0000000000000000e+00  0.0000000000000000e+00 0.0000000000000000e+00 0.0000000000000000e+00  0.0000000000000000e+00 0.0000000000000000e+00 0.0000000000000000e+00  0.0000000000000000e+00 0.0000000000000000e+00 0.0000000000000000e+00  0.0000000000000000e+00 0.0000000000000000e+00 0.0000000000000000e+00  0.0000000000000000e+00 0.0000000000000000e+00 0.0000000000000000e+00  0.0000000000000000e+00 0.0000000000000000e+00 0.0000000000000000e+00  -1.0449734490617396e-04 2.3625496956795842e-05 0.0000000000000000e+00  1.6254332029254068e-02 -4.4022878368856268e-06 0.0000000000000000e+00  1.5451329154448948e-02 4.9632199008835346e-05 0.0000000000000000e+00  1.6258598445368547e-02 -2.4939709299955577e-07 0.0000000000000000e+00  1.6279539728141348e-02 1.4583688452588773e-05 0.0000000000000000e+00  3.8421158255771074e-06 1.6220544394058373e-02 0.0000000000000000e+00  -1.6213466709414780e-02 1.9471874616414544e-05 0.0000000000000000e+00  1.5021305724173793e-05 1.6231345035629313e-02 0.0000000000000000e+00  -1.5480577885547612e-02 5.9666050399306277e-05 0.0000000000000000e+00  5.8659339909231548e-06 -1.6226618780810345e-02 0.0000000000000000e+00  -2.2948735711432041e-05 -1.5349197459273524e-02 0.0000000000000000e+00  1.8630607100189212e-05 1.5354567331879166e-02 0.0000000000000000e+00  1.7274413868295521e-05 1.6236474369566170e-02 0.0000000000000000e+00  1.7128319701017686e-05 -1.6226230782371374e-02 0.0000000000000000e+00  2.2648978284176954e-05 -1.6257361208348971e-02 0.0000000000000000e+00  -1.6268174814684372e-02 -3.0438747833336551e-06 0.0000000000000000e+00  -1.6245044196951771e-02 -1.5763412155351445e-05 0.0000000000000000e+00  -1.6672191350920771e-05 1.6271356876718115e-02 0.0000000000000000e+00  1.6222589293169571e-02 -1.3865601179731178e-05 0.0000000000000000e+00  -2.3641383625143821e-05 -1.6123103343531120e-02 0.0000000000000000e+00  -1.6178126811595410e-02 -1.7785895456897027e-05 0.0000000000000000e+00  -1.0439665110174952e-02 -2.2250460393938684e-03 0.0000000000000000e+00  2.0232919700674660e-03 -1.0172503486324317e-02 0.0000000000000000e+00  1.0135374504382783e-02 2.2611443740750293e-03 0.0000000000000000e+00  2.1840890526697936e-03 1.0182397351834110e-02 0.0000000000000000e+00  0.0000000000000000e+00 0.0000000000000000e+00 0.0000000000000000e+00  0.0000000000000000e+00 0.0000000000000000e+00 0.0000000000000000e+00  0.0000000000000000e+00 0.0000000000000000e+00 0.0000000000000000e+00  0.0000000000000000e+00 0.0000000000000000e+00 0.0000000000000000e+00  -7.2233181931838451e-03 5.9957950846225580e-03 0.0000000000000000e+00  0.0000000000000000e+00 0.0000000000000000e+00 0.0000000000000000e+00  0.0000000000000000e+00 0.0000000000000000e+00 0.0000000000000000e+00  0.0000000000000000e+00 0.0000000000000000e+00 0.0000000000000000e+00  3.2409075765917690e-05 -1.5511423014489050e-02 0.0000000000000000e+00  0.0000000000000000e+00 0.0000000000000000e+00 0.0000000000000000e+00  -1.6196745029909667e-02 -4.4090312658983359e-06 0.0000000000000000e+00  -1.6042866281173039e-02 2.8371381305374502e-05 0.0000000000000000e+00  -1.5991193896233172e-02 -6.5673243767471857e-06 0.0000000000000000e+00  0.0000000000000000e+00 0.0000000000000000e+00 0.0000000000000000e+00  0.0000000000000000e+00 0.0000000000000000e+00 0.0000000000000000e+00  7.9767681573143339e-06 1.6169678877101978e-02 0.0000000000000000e+00  -6.0174280059394434e-06 1.6150573959428691e-02 0.0000000000000000e+00  0.0000000000000000e+00 0.0000000000000000e+00 0.0000000000000000e+00  0.0000000000000000e+00 0.0000000000000000e+00 0.0000000000000000e+00  7.7735249910711266e-05 1.5989631052475882e-02 0.0000000000000000e+00  -1.3563072205904355e-04 1.6116450034209955e-02 0.0000000000000000e+00  0.0000000000000000e+00 0.0000000000000000e+00 0.0000000000000000e+00  0.0000000000000000e+00 0.0000000000000000e+00 0.0000000000000000e+00  2.9890228452230711e-05 -1.6079975496515457e-02 0.0000000000000000e+00  5.5189723811857947e-06 -1.6189524099467317e-02 0.0000000000000000e+00  0.0000000000000000e+00 0.0000000000000000e+00 0.0000000000000000e+00  -7.4897374480838833e-05 -1.6160845238538332e-02 0.0000000000000000e+00  1.6191048305768657e-04 -1.6061332956478297e-02 0.0000000000000000e+00  0.0000000000000000e+00 0.0000000000000000e+00 0.0000000000000000e+00  0.0000000000000000e+00 0.0000000000000000e+00 0.0000000000000000e+00  0.0000000000000000e+00 0.0000000000000000e+00 0.0000000000000000e+00  0.0000000000000000e+00 0.0000000000000000e+00 0.0000000000000000e+00  0.0000000000000000e+00 0.0000000000000000e+00 0.0000000000000000e+00  0.0000000000000000e+00 0.0000000000000000e+00 0.0000000000000000e+00  -1.5922027432140901e-02 1.3373773324545414e-04 0.0000000000000000e+00  -1.6106384350383095e-02 -1.1418697417608342e-04 0.0000000000000000e+00  0.0000000000000000e+00 0.0000000000000000e+00 0.0000000000000000e+00  0.0000000000000000e+00 0.0000000000000000e+00 0.0000000000000000e+00  0.0000000000000000e+00 0.0000000000000000e+00 0.0000000000000000e+00  0.0000000000000000e+00 0.0000000000000000e+00 0.0000000000000000e+00  0.0000000000000000e+00 0.0000000000000000e+00 0.0000000000000000e+00  0.0000000000000000e+00 0.0000000000000000e+00 0.0000000000000000e+00  1.5902647653189245e-02 1.5510578501935296e-04 0.0000000000000000e+00  1.5964270499587957e-02 -9.3262856635823395e-05 0.0000000000000000e+00  0.0000000000000000e+00 0.0000000000000000e+00 0.0000000000000000e+00  0.0000000000000000e+00 0.0000000000000000e+00 0.0000000000000000e+00  0.0000000000000000e+00 0.0000000000000000e+00 0.0000000000000000e+00  1.5946926387937224e-02 2.5964901753134499e-05 0.0000000000000000e+00  1.6208041710336650e-02 6.9804595100499599e-06 0.0000000000000000e+00  0.0000000000000000e+00 0.0000000000000000e+00 0.0000000000000000e+00  0.0000000000000000e+00 0.0000000000000000e+00 0.0000000000000000e+00  -2.9865440436299844e-03 1.3410050389384986e-02 0.0000000000000000e+00  1.3824530694142462e-02 -3.0870882904171387e-03 0.0000000000000000e+00  -2.7633090627349841e-03 -1.4025130429110601e-02 0.0000000000000000e+00  -1.4182690518295822e-02 2.7159883095303722e-03 0.0000000000000000e+00  2.6178930281168667e-05 -1.5400828010496062e-02 0.0000000000000000e+00  -5.8170875301111011e-06 -1.6138037227719264e-02 0.0000000000000000e+00  -1.6036097062664102e-02 -1.7495883667956443e-05 0.0000000000000000e+00  -1.1171889365205316e-06 1.6109852073030846e-02 0.0000000000000000e+00  3.7981093169636808e-05 1.5994283067949915e-02 0.0000000000000000e+00  6.8111502533039301e-03 -4.2538177499276261e-03 0.0000000000000000e+00  1.5426435927573564e-02 2.2168647744093490e-03 0.0000000000000000e+00  2.3593391872666891e-05 1.5485209900920191e-02 0.0000000000000000e+00  -3.9783812534215056e-03 -6.7043421470760920e-03 0.0000000000000000e+00  -1.5913198637753683e-02 2.0129756214964407e-05 0.0000000000000000e+00  -1.6143147976316996e-02 8.2562881625630051e-06 0.0000000000000000e+00  4.0834329650057498e-05 -1.5931126870648491e-02 0.0000000000000000e+00  1.6180051486942539e-02 1.0225828512010322e-05 0.0000000000000000e+00  1.6000390206513261e-02 2.2775579834087636e-05 0.0000000000000000e+00  1.6105438206203061e-02 4.7276888502552996e-06 0.0000000000000000e+00  1.5254733909040516e-02 -7.2623394820416535e-06 0.0000000000000000e+00  2.6375865554084268e-05 1.5974491818812307e-02 0.0000000000000000e+00  -2.3640948136078202e-05 1.6133677768327956e-02 0.0000000000000000e+00  -7.8864573750166822e-06 -1.6044684045875463e-02 0.0000000000000000e+00  2.5595905936705832e-03 1.5902428251140660e-02 0.0000000000000000e+00  -1.5544731758074894e-02 -2.3917381607036037e-03 0.0000000000000000e+00  2.1862641918284956e-03 -1.5466424217082313e-02 0.0000000000000000e+00  1.2382675919209534e-05 1.6182774800686809e-02 0.0000000000000000e+00  -6.1291690102088518e-06 -1.6268034572392166e-02 0.0000000000000000e+00  -1.6153722491094112e-02 -3.7454377903900627e-05 0.0000000000000000e+00  1.5281308093047306e-02 1.2387109746689826e-05 0.0000000000000000e+00  -1.5999850873736940e-02 -7.6313405539109688e-06 0.0000000000000000e+00  1.6073783140984406e-02 -1.1628188568532259e-06 0.0000000000000000e+00  -1.6188863459878799e-02 -4.1988884457317252e-05 0.0000000000000000e+00  8.5279846061100073e-06 -1.6024097961455801e-02 0.0000000000000000e+00  2.2478189352173191e-06 1.6003586829960129e-02 0.0000000000000000e+00  1.5599152621799055e-02 4.7969474861246727e-05 0.0000000000000000e+00  1.6010547524544089e-02 -9.2334432812735969e-04 0.0000000000000000e+00  1.6069837352404578e-02 -2.9683222374632628e-06 0.0000000000000000e+00  1.3644605007641596e-05 1.6033664056241750e-02 0.0000000000000000e+00  -4.3263282055249818e-05 1.5968654342639488e-02 0.0000000000000000e+00  -1.6038577469998372e-02 -4.1210900910132560e-06 0.0000000000000000e+00  -1.6042581764496407e-02 9.4355583193593876e-04 0.0000000000000000e+00  -6.2828736211280518e-04 -1.6056004342463411e-02 0.0000000000000000e+00  1.0062583718627554e-05 -1.5965830886083197e-02 0.0000000000000000e+00  -6.9282290898735235e-04 1.6168784674006967e-02 0.0000000000000000e+00  -1.6125899799402009e-02 4.5721306882470355e-05 0.0000000000000000e+00  2.1321181086340928e-05 -1.6026275610288930e-02 0.0000000000000000e+00  1.5959753391020993e-02 1.7197205130653948e-06 0.0000000000000000e+00  -1.5427540786414186e-02 -2.5875400209698048e-09 0.0000000000000000e+00  1.6142115047144374e-02 -2.9732307404333030e-06 0.0000000000000000e+00  1.5367468012662219e-02 -5.7614172299562307e-05 0.0000000000000000e+00  -1.5392402345816474e-02 -1.1592026728144008e-04 0.0000000000000000e+00  2.1251994808380211e-05 1.6001915315789195e-02 0.0000000000000000e+00  2.6058555335712559e-05 -1.5979930743349448e-02 0.0000000000000000e+00  1.5416927173664684e-02 4.8657051680517892e-04 0.0000000000000000e+00  5.3972215472207887e-04 1.5912343328500951e-02 0.0000000000000000e+00  2.1624227899051344e-05 1.6231241342399547e-02 0.0000000000000000e+00  1.5487573698256096e-02 -2.9739662348695424e-06 0.0000000000000000e+00  -1.6258471511578752e-02 -3.9569631636542964e-06 0.0000000000000000e+00  -1.3880673297378602e-02 3.1870210740669813e-05 0.0000000000000000e+00  1.5949917603283395e-05 1.3340379201098495e-02 0.0000000000000000e+00  -2.5487067608652406e-06 -1.6260086804105976e-02 0.0000000000000000e+00  -4.6575178020276181e-05 -1.3628150161347571e-02 0.0000000000000000e+00  1.6245764152165360e-02 -7.2044881589337935e-06 0.0000000000000000e+00  1.3368682782102976e-02 2.3378165706933373e-05 0.0000000000000000e+00  -5.5435870114941744e-06 1.3907617681946507e-02 0.0000000000000000e+00  -1.5700182333133566e-02 1.0224277992241851e-04 0.0000000000000000e+00  -2.2423587682824346e-05 -1.3892478555494983e-02 0.0000000000000000e+00  5.2408573032584630e-05 1.3839470304141019e-02 0.0000000000000000e+00  -1.4198852366784778e-06 -1.3605017702343946e-02 0.0000000000000000e+00  4.4361813726418210e-03 4.2869745798119934e-03 0.0000000000000000e+00  8.3206392145816280e-03 9.7475527071528619e-03 0.0000000000000000e+00  -1.0834274541960465e-03 5.5708480832538446e-03 0.0000000000000000e+00  6.3520480777398052e-04 -1.5912652782556783e-02 0.0000000000000000e+00  -1.5890731059996312e-02 -5.6897257299199408e-04 0.0000000000000000e+00  -8.8100599524263347e-06 1.5980157499851821e-02 0.0000000000000000e+00  7.3282170417367678e-06 -1.6010442503062418e-02 0.0000000000000000e+00  0.0000000000000000e+00 0.0000000000000000e+00 0.0000000000000000e+00  0.0000000000000000e+00 0.0000000000000000e+00 0.0000000000000000e+00  7.3725675824096225e-04 -1.3688802684040401e-02 0.0000000000000000e+00  -1.3785422790594245e-02 -4.1982413798130050e-04 0.0000000000000000e+00  -5.2026695065141241e-03 -1.3277342316128677e-03 0.0000000000000000e+00  8.6757320441911753e-03 -1.1099451075267061e-02 0.0000000000000000e+00  -1.3644729648348392e-02 -6.8727496513288520e-03 0.0000000000000000e+00  1.3770882664519563e-02 4.2406964387779002e-04 0.0000000000000000e+00  6.6967331352769656e-05 1.3586814113466503e-02 0.0000000000000000e+00  1.3598837934198768e-03 -5.1553416957419327e-03 0.0000000000000000e+00  0.0000000000000000e+00 0.0000000000000000e+00 0.0000000000000000e+00  1.4013403240635802e-02 -2.3455286787126499e-04 0.0000000000000000e+00  -1.8403198929580979e-03 -1.6076648555502754e-02 0.0000000000000000e+00  0.0000000000000000e+00 0.0000000000000000e+00 0.0000000000000000e+00  5.4681880214961574e-05 -1.3885591286370015e-02 0.0000000000000000e+00  0.0000000000000000e+00 0.0000000000000000e+00 0.0000000000000000e+00  7.0034568532347544e-05 1.4226078711032762e-02 0.0000000000000000e+00  -1.4273326017326036e-02 -1.1202950511035825e-04 0.0000000000000000e+00  0.0000000000000000e+00 0.0000000000000000e+00 0.0000000000000000e+00  0.0000000000000000e+00 0.0000000000000000e+00 0.0000000000000000e+00  0.0000000000000000e+00 0.0000000000000000e+00 0.0000000000000000e+00  8.8686506356917219e-06 -1.6215088026308295e-02 0.0000000000000000e+00  -3.0227508113521802e-05 1.6180577270317603e-02 0.0000000000000000e+00  1.6244138907319960e-02 3.4986329516755465e-06 0.0000000000000000e+00  1.5972740333727111e-02 -2.5741944577882292e-04 0.0000000000000000e+00  -1.6174742718513681e-02 -1.6312043553229930e-05 0.0000000000000000e+00  1.2809258007294922e-05 -1.6187597538565839e-02 0.0000000000000000e+00  1.6215273381247632e-05 1.6121498331171488e-02 0.0000000000000000e+00  -1.6249336977521719e-02 3.0265850307232514e-06 0.0000000000000000e+00  1.3541598107968405e-02 1.5186663790303332e-06 0.0000000000000000e+00  0.0000000000000000e+00 0.0000000000000000e+00 0.0000000000000000e+00  0.0000000000000000e+00 0.0000000000000000e+00 0.0000000000000000e+00  3.3641592437433056e-04 -1.4210501081966054e-02 0.0000000000000000e+00  -7.1207225303260543e-05 1.4174894999025363e-02 0.0000000000000000e+00  0.0000000000000000e+00 0.0000000000000000e+00 0.0000000000000000e+00  -1.5554768638975456e-02 2.2342656287586087e-04 0.0000000000000000e+00  0.0000000000000000e+00 0.0000000000000000e+00 0.0000000000000000e+00  0.0000000000000000e+00 0.0000000000000000e+00 0.0000000000000000e+00  1.5659258587405196e-02 3.7275278987095048e-05 0.0000000000000000e+00  -1.5554152339132382e-02 -1.9244054596161309e-05 0.0000000000000000e+00  0.0000000000000000e+00 0.0000000000000000e+00 0.0000000000000000e+00  0.0000000000000000e+00 0.0000000000000000e+00 0.0000000000000000e+00  -7.5380120849255659e-03 -1.1697915560014508e-02 0.0000000000000000e+00  -9.1299826071062416e-06 -1.5978140884909651e-02 0.0000000000000000e+00  -1.6059566317794410e-02 5.6927686120953393e-05 0.0000000000000000e+00  1.6154753410133896e-02 1.9830377926807042e-06 0.0000000000000000e+00  1.2851771092606812e-05 1.6244691080135935e-02 0.0000000000000000e+00  -1.4180025504452446e-02 -7.3070455780199718e-05 0.0000000000000000e+00  1.0313824989056720e-04 1.3963657595677022e-02 0.0000000000000000e+00  -4.5021286860381797e-06 1.3970429792351692e-02 0.0000000000000000e+00  4.5123769197316872e-05 -1.3920925888544515e-02 0.0000000000000000e+00  1.6391384864682512e-05 -1.6058990716702835e-02 0.0000000000000000e+00  0.0000000000000000e+00 0.0000000000000000e+00 0.0000000000000000e+00  3.6658743132638654e-06 -1.6007464910024999e-02 0.0000000000000000e+00  -8.2519547372730175e-03 1.7043020396567776e-03 0.0000000000000000e+00  -1.2511563919269069e-02 8.4064620122586177e-03 0.0000000000000000e+00  1.4473993622808720e-02 6.7612241870649015e-03 0.0000000000000000e+00  -1.2059624025374048e-03 -1.5231484788392893e-02 0.0000000000000000e+00  4.4642944362536007e-03 1.1418219620601929e-04 0.0000000000000000e+00  -1.4381306177126209e-02 -1.5533167814058487e-04 0.0000000000000000e+00  4.3220502877331835e-06 -1.4405808660194593e-02 0.0000000000000000e+00  -1.6404019725317721e-04 1.4375160573015907e-02 0.0000000000000000e+00  1.4213780275847654e-02 1.6306286809674818e-05 0.0000000000000000e+00  1.4146995030432768e-02 -5.3333177799880839e-06 0.0000000000000000e+00  1.3514830159154967e-04 1.5983315967722407e-02 0.0000000000000000e+00  1.4148418458576444e-02 2.7190667531665360e-04 0.0000000000000000e+00  2.3483104923548052e-05 -1.6226877999295928e-02 0.0000000000000000e+00  1.4790876024739595e-05 1.6236673570814292e-02 0.0000000000000000e+00  1.6138107187316335e-02 2.3940673360284928e-05 0.0000000000000000e+00  -1.6228023036171817e-02 3.1465319553207915e-05 0.0000000000000000e+00  -1.3772204354649827e-02 1.0863849962595236e-04 0.0000000000000000e+00  -1.3100312957411631e-04 -1.5971072513714091e-02 0.0000000000000000e+00  -1.3393785878689621e-04 -1.3656671264894974e-02 0.0000000000000000e+00  -1.5945204313745683e-02 3.3294685418442527e-04 0.0000000000000000e+00  1.6250686428907653e-02 1.2838527161327535e-05 0.0000000000000000e+00  3.6889900198778277e-06 1.6187996792949345e-02 0.0000000000000000e+00  1.5960488973420939e-02 2.7294271416526981e-04 0.0000000000000000e+00  -1.8491366967434159e-03 9.9317834194469611e-03 0.0000000000000000e+00  0.0000000000000000e+00 0.0000000000000000e+00 0.0000000000000000e+00  0.0000000000000000e+00 0.0000000000000000e+00 0.0000000000000000e+00  0.0000000000000000e+00 0.0000000000000000e+00 0.0000000000000000e+00  -6.1805522377195520e-06 1.6254975271705101e-02 0.0000000000000000e+00  1.6123367879789990e-05 1.6167552730528910e-02 0.0000000000000000e+00  1.7966416930607318e-05 -1.6192547150411102e-02 0.0000000000000000e+00  -1.6077749823951756e-02 -9.4234162183652741e-06 0.0000000000000000e+00  0.0000000000000000e+00 0.0000000000000000e+00 0.0000000000000000e+00  -4.1153213848711919e-06 -1.6222747457006446e-02 0.0000000000000000e+00  0.0000000000000000e+00 0.0000000000000000e+00 0.0000000000000000e+00  -1.3792200744950000e-02 -2.0542589411164126e-05 0.0000000000000000e+00  -2.9287819102183147e-05 -1.6165346227318467e-02 0.0000000000000000e+00  -1.3426433281424237e-03 1.4857781675328073e-02 0.0000000000000000e+00  -2.3149602361852480e-03 1.5853096750107813e-02 0.0000000000000000e+00  -1.6220171980609682e-02 2.5341692118624638e-0