<?xml version="1.0"?>
<VTKFile type="UnstructuredGrid"  version="0.1"  >
<UnstructuredGrid>
<Piece  NumberOfPoints="778" NumberOfCells="1401">
<Points>
<DataArray  type="Float64"  NumberOfComponents="3"  format="ascii">1 -1 0  6 -1 0  6 1 0  1 1 0  1 6 0  -1 6 0  -1 1 0  -6 1 0  -6 -1 0  -1 -1 0  -1 -6 0  1 -6 0  1 3.5 0  -1 3.5 0  -1 -3.5 0  1 -3.5 0  3.5 -1 0  3.5 1 0  -3.5 -1 0  -3.5 1 0  -1 -2.25 0  1 -2.25 0  2.25 -1 0  2.25 1 0  -1 2.25 0  1 2.25 0  -1 4.75 0  1 4.75 0  -4.75 -1 0  -4.75 1 0  -2.25 1 0  -2.25 -1 0  1 -4.75 0  -1 -4.75 0  4.75 1 0  4.75 -1 0  0 0 0  -2.875 0 0  -1.625 0 0  -4.125 0 0  -6 0 0  0 2.875 0  2.875 0 0  0 6 0  1.625 0 0  0 -2.875 0  0 -1.625 0  0 1.625 0  0 4.125 0  0 -6 0  0 -4.125 0  4.125 0 0  6 0 0  -0.109375 5.0625 0  -5.0625 -0.109375 0  -0.109375 -5.0625 0  5.0625 0.109375 0  0.8125 -0.1875 0  -0.1875 -0.8125 0  -0.8125 0.1875 0  -0.1875 0.8125 0  1 5.375 0  -5.375 1 0  1 -5.375 0  5.375 -1 0  0.53515625 0.46484375 0  -5.375 -1 0  -1 5.375 0  -1 -5.375 0  -0.5 -6 0  5.375 1 0  6 0.5 0  3.5 0.3046875 0  3.43125 -0.34765625 0  2.875 -1 0  4.125 1 0  0.3046875 3.5 0  -0.34765625 3.56875 0  -1 4.125 0  1 4.125 0  -0.3046875 2.25 0  0.34765625 2.18125 0  1 1.625 0  -1 -1.625 0  -0.3046875 -3.5 0  0.34765625 -3.56875 0  1 -4.125 0  0.3046875 -2.25 0  -0.34765625 -2.18125 0  -1 -4.125 0  -1 -2.875 0  1 -2.875 0  1 -1.625 0  1.625 -1 0  1.625 1 0  2.25 0.3046875 0  2.18125 -0.34765625 0  4.125 -1 0  2.875 1 0  1 2.875 0  -1 1.625 0  -1 2.875 0  -4.125 -1 0  -2.25 0.3046875 0  -2.31875 -0.34765625 0  -2.875 -1 0  -1.625 1 0  -4.125 1 0  -3.5 0.3046875 0  -3.56875 -0.34765625 0  -1.625 -1 0  -2.875 1 0  0.380626321794301 1.06853329530276 0  -1.110819327731092 -0.3739495798319328 0  0.3739495798319328 -1.110819327731092 0  1.151210293219304 0.3991939332620648 0  -0.5 -4.4375 0  0.5 -4.4375 0  5.481553398058253 -0.3712833737864077 0  0.5 4.4375 0  0.5 6 0  -0.522503783594538 -0.3265648647465863 0  -1.3125 0.5 0  -0.5 6 0  0.3265648647465863 -0.522503783594538 0  4.4375 0.5 0  4.4375 -0.5 0  0.5 -6 0  -6 -0.5 0  -5.481553398058253 0.3712833737864077 0  -4.55 -0.4296875 0  -4.4375 0.5 0  -0.5 4.4375 0  0.4792930825242718 5.026881067961165 0  0.4792930825242718 -5.026881067961165 0  -0.5 1.3125 0  1.3125 -0.5 0  -0.5 -1.3125 0  0.25 5.518539952962044 0  0.2125133872612723 -5.500076563152851 0  4.969341874373811 -0.5152550785163683 0  -4.969341874373811 0.5152550785163683 0  3.927189744345589 -0.4712876597840069 0  -5.554036458333333 -0.25 0  5.554036458333333 0.25 0  -0.4690710616438356 -5.462756849315069 0  -0.4690710616438356 5.462756849315069 0  -6 0.5 0  -1.59556436210848 -0.5 0  -3.058421751829955 -0.5 0  -0.5 2.731982421875 0  0.5 2.691578248170045 0  2.691578248170045 -0.5 0  1.641211254104555 0.5 0  0.5 -1.768017578125 0  0.5 -3.058421751829955 0  0.5 1.699267578125 0  3.018017578125 0.5 0  -0.5 -3.018017578125 0  -2.731982421875 0.5 0  6 -0.5 0  -4.050017120925308 -0.5006099332648871 0  -3.940668202764977 0.5371363767281105 0  3.940668202764977 0.5371363767281105 0  0.4517449476047904 3.958458083832335 0  -0.4517449476047904 -3.958458083832335 0  -1.809331797235023 0.5371363767281105 0  -0.4517449476047904 1.791541916167665 0  -0.0546875 4.59375 0  -5.006445312499999 -0.58984375 0  4.605643203883496 -0.04725424757281554 0  4.90625 0.5546875 0  -0.5546875 4.90625 0  0.04725424757281554 -4.605643203883496 0  -0.586116118210531 -4.995821561900013 0  -4.603710222472543 0.04846236095466061 0  -3.1875 0.65234375 0  0.6163907621110913 3.147502300973589 0  2.5625 0.65234375 0  0.6163907621110913 -2.602497699026411 0  -0.637456713551384 3.189259902731882 0  -0.637456713551384 -2.560740097268118 0  -0.34765625 0.34765625 0  -0.639453125 0.708203125 0  0.089630126953125 0.437286376953125 0  -0.4238281249999999 -1.746875 0  1.746875 -0.4238281249999999 0  -0.4238281249999999 4.003125 0  0.4238281249999999 -4.003125 0  -2.5625 -1 0  3.1875 -1 0  -0.09375 -1.21875 0  1.21875 -0.09375 0  0.4020305405760241 -0.1120343241705621 0  -0.6280191027904287 -0.7577505545748082 0  0.90625 -0.59375 0  -1.205500904741459 0.03633725387965409 0  -0.02129048848213058 1.202028574265107 0  -0.1120343241705621 -0.4020305405760241 0  1 1.3125 0  -2.003587563743074 -0.6442361556699288 0  0.6640077663259718 -1.395873598614549 0  5.6875 -1 0  0.6308138580859101 -5.592151086468728 0  -5.6875 -1 0  0.6568032075915271 5.612942566073222 0  5.616530031741774 0.6612875396772174 0  -5.6875 1 0  1.9375 1 0  -1.3125 -1 0  0.1524679547155687 -3.232579139388032 0  0.1524679547155687 2.517420860611968 0  -3.232579139388032 -0.1524679547155687 0  -1.932320553757026 -0.252759244693845 0  2.517420860611968 -0.1524679547155687 0  -0.04776045819569434 -2.464949198504599 0  -0.2420369079104247 3.187693796852321 0  3.751304711039982 -0.1203080877045035 0  -5.397601941771943 -0.609026059866711 0  1.3125 1 0  1.9375 -1 0  -0.6946315101963667 -2.018229242739021 0  -0.6946315101963667 3.731770757260979 0  1 -3.8125 0  2.014364435550335 0.6166648446293641 0  -1 5.6875 0  -1 -5.6875 0  -2.653476149871182 -0.5942957192996303 0  3.096523850128818 -0.5942957192996303 0  1 1.9375 0  -3.8125 -1 0  0.586975531244212 -0.7975955463807081 0  -0.2946248980953088 -4.743710873809568 0  2.625453376770019 0.2814788818359375 0  -3.124546623229981 0.2814788818359375 0  -0.1204856417894853 5.631800603217465 0  5.253862011026742 0.6581468962876398 0  -0.65234375 2.108701557941197 0  0.65234375 3.641298442058803 0  -0.65234375 -3.641298442058803 0  -0.25 -5.744880569758637 0  -4.4375 -1 0  -0.3166212631734941 -2.713595940002554 0  0.6591479224207506 0.1324305912687024 0  0.8660781906552419 0.6468634238104103 0  -0.9887189158197679 0.6452930723873549 0  0.3149351927204296 -1.460971774996065 0  -0.3572852727880474 -0.009629022788047503 0  2.09375 -0.6866724363772454 0  0.6866724363772454 -3.65625 0  0.6866724363772454 2.09375 0  -3.65625 -0.6866724363772454 0  -3.5371337890625 0.65234375 0  -0.1389584113023952 1.944025352615082 0  -2.151744288472698 0.65234375 0  -0.1389584113023951 -3.805974647384918 0  0.1389584113023951 3.805974647384918 0  -2.578772109813904 0.1857224367977529 0  3.171227890186096 0.1857224367977529 0  3.360315647536819 0.65234375 0  0.1857224367977528 -1.921227890186096 0  0.65234375 -2.110315647536819 0  1.894016528727564 0.2415406141485869 0  -3.738232421875 0 0  0.2516875549238616 3.139069895099618 0  -1.913724396854074 0.2011142179916434 0  0.1669456568161915 0.7843410671359501 0  -2.5625 1 0  -1 -3.1875 0  -1 2.5625 0  0.1736601499778735 4.857955663330752 0  -0.1893536587212888 2.577300639071919 0  -0.1893536587212888 -3.172699360928081 0  3.852271904453858 0.206603749322895 0  -3.8125 1 0  -0.1250095034621793 -5.421707592768541 0  3.8125 -1 0  3.617304217264373 -0.6578427703661498 0  0.2630176195580202 -2.636558318495885 0  0.2674330357770522 1.399517071108871 0  0.631726413079416 1.339254523727593 0  4.700571879807737 0.2813704945051134 0  0.7143844363649634 -3.319538455208831 0  2.430461544791169 -0.7143844363649634 0  0.7143844363649634 2.430461544791169 0  -3.319538455208831 -0.7143844363649634 0  5.687045771608623 -0.6520598572553891 0  -5.687045771608623 0.6520598572553891 0  -1.15625 -0.7048248829733235 0  3.438284572973296 -0.01860298867862281 0  -0.03021088078697859 3.451572359862192 0  2.216682837011589 -0.02159585961918548 0  -2.191580885932936 -0.03126387444658879 0  0.1857410764408683 1.895679405349457 0  3.103473238297955 -0.253270943723272 0  -2.646526761702045 -0.253270943723272 0  -2.333137350671861 -0.6791984914172315 0  -1 5.0625 0  -0.6971235589909319 5.213002544375844 0  0.01618705363819947 2.225929180591695 0  0.01618705363819947 -3.524070819408305 0  0.5690054882403073 0.7951310720450595 0  -0.5764940424412852 -3.329579265180942 0  -0.5764940424412852 2.420420734819058 0  3.8125 1 0  -5.372163860234628 0.04365139563106807 0  5.164108319316826 -0.225040894204947 0  -5.361952437854323 0.6744012088984681 0  -5.0625 1 0  5.286835586913878 -0.6616705837083201 0  -5.692815197359722 0.1186699900166531 0  5.663425996156958 -0.07763197815533956 0  -0.9219866027132193 -0.1143045829323572 0  -1.394333629759332 -0.2233077430199216 0  0.09322478991596644 -0.9616596638655462 0  5.0625 -1 0  -0.14412109375 -1.92169189453125 0  -4.28125 -0.7212148987671345 0  0.2649796277366407 0.1735162902120744 0  -4.907855692236596 0.1868230509619793 0  -1.9375 1 0  1 5.0625 0  0.6915124486819284 -5.272938212550202 0  0.683483242673902 5.284948082526911 0  2.5625 -1 0  -1 -3.8125 0  -1 1.9375 0  5.0625 1 0  -1 -1.9375 0  1 5.6875 0  1 -5.6875 0  -1.9375 -1 0  -1 -2.5625 0  -1 3.1875 0  1 -3.1875 0  1 -2.5625 0  1 2.5625 0  1 3.1875 0  -5.0625 -1 0  -1 -1.3125 0  1.3125 -1 0  -1 1.3125 0  -1 3.8125 0  -1 4.4375 0  -4.4375 1 0  4.4375 -1 0  4.4375 1 0  -1.3125 1 0  1 4.4375 0  1 -4.4375 0  -1 -5.0625 0  -1 -4.4375 0  -3.1875 1 0  2.5625 1 0  1 -1.9375 0  1 -1.3125 0  5.6875 1 0  1 3.8125 0  3.1875 1 0  -3.1875 -1 0  1 -5.0625 0  1.35138038998199 0.6675097549271188 0  -0.465625 0.986328125 0  1.435958105992309 0.2563920171199723 0  1.915914614192913 -0.145782394639918 0  -0.8764440609469509 -0.5746869313612541 0  5.355194559946098 0.01566259380337612 0  -5.69333042954964 -0.5242868300459975 0  1.78125 -0.7320750794491524 0  0.7320750794491525 -3.96875 0  -0.3959075548864684 5.166422468926435 0  -4.770522389068053 -0.2123670725088856 0  -4.714160156249999 -0.69234375 0  -4.273484403713342 -0.278160994327167 0  0.9642590244517505 0.08196089404241463 0  0.3500261717645397 -4.727285205957206 0  0.6740868006020392 -4.765147848348443 0  0.6797550207247084 -1.089747806381148 0  -5.186479934354063 0.3046329157552757 0  -5.263288238215326 -0.3369092276308425 0  -2.433484016245305 0.5442571297016638 0  0.1707808983307866 -3.82363304980935 0  -0.1554012991031027 3.867535742674252 0  4.855508096805579 -0.2283975605264581 0  3.644517238097614 0.5646428152488787 0  0.05699603874439441 -0.6452791208413911 0  -0.3550018917972689 -0.5695324323732931 0  0.6
[...]
<PointData  Vectors="u"> 
<DataArray  type="Float64"  Name="u"  NumberOfComponents="3" format="ascii">0.0000000000000000e+00 0.0000000000000000e+00 0.0000000000000000e+00  0.0000000000000000e+00 0.0000000000000000e+00 0.0000000000000000e+00  0.0000000000000000e+00 0.0000000000000000e+00 0.0000000000000000e+00  0.0000000000000000e+00 0.0000000000000000e+00 0.0000000000000000e+00  0.0000000000000000e+00 0.0000000000000000e+00 0.0000000000000000e+00  0.0000000000000000e+00 0.0000000000000000e+00 0.0000000000000000e+00  0.0000000000000000e+00 0.0000000000000000e+00 0.0000000000000000e+00  0.0000000000000000e+00 0.0000000000000000e+00 0.0000000000000000e+00  0.0000000000000000e+00 0.0000000000000000e+00 0.0000000000000000e+00  0.0000000000000000e+00 0.0000000000000000e+00 0.0000000000000000e+00  0.0000000000000000e+00 0.0000000000000000e+00 0.0000000000000000e+00  0.0000000000000000e+00 0.0000000000000000e+00 0.0000000000000000e+00  0.0000000000000000e+00 0.0000000000000000e+00 0.0000000000000000e+00  0.0000000000000000e+00 0.0000000000000000e+00 0.0000000000000000e+00  0.0000000000000000e+00 0.0000000000000000e+00 0.0000000000000000e+00  0.0000000000000000e+00 0.0000000000000000e+00 0.0000000000000000e+00  0.0000000000000000e+00 0.0000000000000000e+00 0.0000000000000000e+00  0.0000000000000000e+00 0.0000000000000000e+00 0.0000000000000000e+00  0.0000000000000000e+00 0.0000000000000000e+00 0.0000000000000000e+00  0.0000000000000000e+00 0.0000000000000000e+00 0.0000000000000000e+00  0.0000000000000000e+00 0.0000000000000000e+00 0.0000000000000000e+00  0.0000000000000000e+00 0.0000000000000000e+00 0.0000000000000000e+00  0.0000000000000000e+00 0.0000000000000000e+00 0.0000000000000000e+00  0.0000000000000000e+00 0.0000000000000000e+00 0.0000000000000000e+00  0.0000000000000000e+00 0.0000000000000000e+00 0.0000000000000000e+00  0.0000000000000000e+00 0.0000000000000000e+00 0.0000000000000000e+00  0.0000000000000000e+00 0.0000000000000000e+00 0.0000000000000000e+00  0.0000000000000000e+00 0.0000000000000000e+00 0.0000000000000000e+00  0.0000000000000000e+00 0.0000000000000000e+00 0.0000000000000000e+00  0.0000000000000000e+00 0.0000000000000000e+00 0.0000000000000000e+00  0.0000000000000000e+00 0.0000000000000000e+00 0.0000000000000000e+00  0.0000000000000000e+00 0.0000000000000000e+00 0.0000000000000000e+00  0.0000000000000000e+00 0.0000000000000000e+00 0.0000000000000000e+00  0.0000000000000000e+00 0.0000000000000000e+00 0.0000000000000000e+00  0.0000000000000000e+00 0.0000000000000000e+00 0.0000000000000000e+00  0.0000000000000000e+00 0.0000000000000000e+00 0.0000000000000000e+00  -1.9962515842506857e-04 1.0298723331695302e-04 0.0000000000000000e+00  5.5554373657102377e-02 -1.1260780214567988e-05 0.0000000000000000e+00  5.3106158501828780e-02 5.8976983370546450e-05 0.0000000000000000e+00  5.5621409982247162e-02 4.2425778966600234e-06 0.0000000000000000e+00  5.5684793223741619e-02 3.7461056562252108e-05 0.0000000000000000e+00  1.3281675361807184e-05 5.5546818632289732e-02 0.0000000000000000e+00  -5.5465540777923927e-02 4.4963324834170511e-05 0.0000000000000000e+00  4.0609911542354365e-05 5.5473828505474228e-02 0.0000000000000000e+00  -5.3207878132869403e-02 1.2057589238259919e-04 0.0000000000000000e+00  6.3238625815639429e-06 -5.5507775933864162e-02 0.0000000000000000e+00  -7.9843728833181254e-06 -5.3053955331082099e-02 0.0000000000000000e+00  4.3075751691540430e-05 5.2989983948891983e-02 0.0000000000000000e+00  3.5982424501400606e-05 5.5500611606854218e-02 0.0000000000000000e+00  4.3013070487846628e-05 -5.5489574459087761e-02 0.0000000000000000e+00  7.0745776029726198e-05 -5.5567960022260270e-02 0.0000000000000000e+00  -5.5630005408706724e-02 -2.1292057680770325e-05 0.0000000000000000e+00  -5.5604397658142027e-02 -4.9325728608504659e-05 0.0000000000000000e+00  -6.9021121049321637e-05 5.5629982291544741e-02 0.0000000000000000e+00  5.5576531622779160e-02 -7.5559304488882078e-05 0.0000000000000000e+00  -8.5014746219628200e-05 -5.5394893102642083e-02 0.0000000000000000e+00  -5.5507597067505847e-02 -6.8071328854689173e-05 0.0000000000000000e+00  -3.6050096792468983e-02 -7.4345163213138405e-03 0.0000000000000000e+00  7.2515282712992653e-03 -3.5584933839789806e-02 0.0000000000000000e+00  3.5470307459228162e-02 7.3346240401644105e-03 0.0000000000000000e+00  7.4545539837780851e-03 3.5642229865848772e-02 0.0000000000000000e+00  0.0000000000000000e+00 0.0000000000000000e+00 0.0000000000000000e+00  0.0000000000000000e+00 0.0000000000000000e+00 0.0000000000000000e+00  0.0000000000000000e+00 0.0000000000000000e+00 0.0000000000000000e+00  0.0000000000000000e+00 0.0000000000000000e+00 0.0000000000000000e+00  -2.4849691261546940e-02 2.0996509426581853e-02 0.0000000000000000e+00  0.0000000000000000e+00 0.0000000000000000e+00 0.0000000000000000e+00  0.0000000000000000e+00 0.0000000000000000e+00 0.0000000000000000e+00  0.0000000000000000e+00 0.0000000000000000e+00 0.0000000000000000e+00  5.6702737924062608e-05 -5.2986785942172807e-02 0.0000000000000000e+00  0.0000000000000000e+00 0.0000000000000000e+00 0.0000000000000000e+00  -5.5336626883799075e-02 -1.7578689021980397e-06 0.0000000000000000e+00  -5.5728391502670956e-02 6.1151978093640271e-05 0.0000000000000000e+00  -5.5603887057687894e-02 2.3700480917533146e-05 0.0000000000000000e+00  0.0000000000000000e+00 0.0000000000000000e+00 0.0000000000000000e+00  0.0000000000000000e+00 0.0000000000000000e+00 0.0000000000000000e+00  3.3944602339452471e-05 5.5518748991952777e-02 0.0000000000000000e+00  -1.6204271169842253e-06 5.5635577917979441e-02 0.0000000000000000e+00  0.0000000000000000e+00 0.0000000000000000e+00 0.0000000000000000e+00  0.0000000000000000e+00 0.0000000000000000e+00 0.0000000000000000e+00  2.6190028436292256e-04 5.5308745849354100e-02 0.0000000000000000e+00  -3.8537213137477595e-04 5.5360533858494057e-02 0.0000000000000000e+00  0.0000000000000000e+00 0.0000000000000000e+00 0.0000000000000000e+00  0.0000000000000000e+00 0.0000000000000000e+00 0.0000000000000000e+00  3.9195603373063149e-05 -5.5523492785814726e-02 0.0000000000000000e+00  1.7296084052296886e-05 -5.5557357445541050e-02 0.0000000000000000e+00  0.0000000000000000e+00 0.0000000000000000e+00 0.0000000000000000e+00  -2.3326323106602405e-04 -5.5311164390029692e-02 0.0000000000000000e+00  4.7720578122036343e-04 -5.5423570043917215e-02 0.0000000000000000e+00  0.0000000000000000e+00 0.0000000000000000e+00 0.0000000000000000e+00  0.0000000000000000e+00 0.0000000000000000e+00 0.0000000000000000e+00  0.0000000000000000e+00 0.0000000000000000e+00 0.0000000000000000e+00  0.0000000000000000e+00 0.0000000000000000e+00 0.0000000000000000e+00  0.0000000000000000e+00 0.0000000000000000e+00 0.0000000000000000e+00  0.0000000000000000e+00 0.0000000000000000e+00 0.0000000000000000e+00  -5.5312900168395220e-02 3.4438176562828917e-04 0.0000000000000000e+00  -5.5313612216538306e-02 -3.5325591490307921e-04 0.0000000000000000e+00  0.0000000000000000e+00 0.0000000000000000e+00 0.0000000000000000e+00  0.0000000000000000e+00 0.0000000000000000e+00 0.0000000000000000e+00  0.0000000000000000e+00 0.0000000000000000e+00 0.0000000000000000e+00  0.0000000000000000e+00 0.0000000000000000e+00 0.0000000000000000e+00  0.0000000000000000e+00 0.0000000000000000e+00 0.0000000000000000e+00  0.0000000000000000e+00 0.0000000000000000e+00 0.0000000000000000e+00  5.5465340302203937e-02 3.5612109324208044e-04 0.0000000000000000e+00  5.5545908003931055e-02 -3.3206258925925103e-04 0.0000000000000000e+00  0.0000000000000000e+00 0.0000000000000000e+00 0.0000000000000000e+00  0.0000000000000000e+00 0.0000000000000000e+00 0.0000000000000000e+00  0.0000000000000000e+00 0.0000000000000000e+00 0.0000000000000000e+00  5.5432449763054129e-02 9.4478695608434269e-05 0.0000000000000000e+00  5.5598050344378001e-02 2.4884413970795703e-05 0.0000000000000000e+00  0.0000000000000000e+00 0.0000000000000000e+00 0.0000000000000000e+00  0.0000000000000000e+00 0.0000000000000000e+00 0.0000000000000000e+00  -1.0316917916597022e-02 4.7037337442620931e-02 0.0000000000000000e+00  4.8352526138771244e-02 -1.0056964961299639e-02 0.0000000000000000e+00  -9.6087485679054088e-03 -4.8806199497693548e-02 0.0000000000000000e+00  -4.9414170985869282e-02 9.0679008946468950e-03 0.0000000000000000e+00  3.7208585779244345e-05 -5.2940574048363651e-02 0.0000000000000000e+00  -1.9501672049951324e-07 -5.5598609224034326e-02 0.0000000000000000e+00  -5.5658385014307456e-02 -7.8639226948275037e-05 0.0000000000000000e+00  4.1820645804264150e-06 5.5492949423759229e-02 0.0000000000000000e+00  4.2552321450555419e-05 5.5489316708052801e-02 0.0000000000000000e+00  2.3560813547898841e-02 -1.4703870450055827e-02 0.0000000000000000e+00  5.3737876816022580e-02 7.4938987501665978e-03 0.0000000000000000e+00  1.7674973491985568e-05 5.2983369066877527e-02 0.0000000000000000e+00  -1.4199439410121256e-02 -2.3548574592578305e-02 0.0000000000000000e+00  -5.5506638400203777e-02 -4.7904303852791290e-05 0.0000000000000000e+00  -5.5625760187159472e-02 5.9932736509639622e-06 0.0000000000000000e+00  2.4570413889250563e-05 -5.5493483930354331e-02 0.0000000000000000e+00  5.5711136235134025e-02 -2.4862132620437205e-06 0.0000000000000000e+00  5.5561267390967846e-02 5.5432309909347398e-05 0.0000000000000000e+00  5.5714065780723750e-02 6.6973175829642257e-06 0.0000000000000000e+00  5.2762542762474683e-02 -1.5259712913993716e-05 0.0000000000000000e+00  1.4666043710053214e-05 5.5352662906641606e-02 0.0000000000000000e+00  -3.3163518391964704e-05 5.5636266818589533e-02 0.0000000000000000e+00  -3.2232434385891595e-05 -5.5572950339047911e-02 0.0000000000000000e+00  7.9575948750679280e-03 5.5116120152544246e-02 0.0000000000000000e+00  -5.4276040918497026e-02 -7.4371444863233251e-03 0.0000000000000000e+00  7.5237207217462862e-03 -5.3817227562664889e-02 0.0000000000000000e+00  3.4783780854792273e-05 5.5516021357185009e-02 0.0000000000000000e+00  -2.6160826309274287e-05 -5.5594679386628168e-02 0.0000000000000000e+00  -5.5678097895445887e-02 -5.8845130696822129e-05 0.0000000000000000e+00  5.3382241748141199e-02 -7.7417212547340866e-07 0.0000000000000000e+00  -5.5552876440528261e-02 -3.0544915320638875e-05 0.0000000000000000e+00  5.5636494223855866e-02 -8.2335922356991799e-05 0.0000000000000000e+00  -5.5566811483627875e-02 -1.4498239706963917e-04 0.0000000000000000e+00  5.1985611628347180e-06 -5.5425186857422433e-02 0.0000000000000000e+00  1.9695095278018856e-05 5.5485027490325516e-02 0.0000000000000000e+00  5.3930327357303381e-02 1.1960982955805348e-04 0.0000000000000000e+00  5.5328859637091200e-02 -2.8736537876933792e-03 0.0000000000000000e+00  5.5626708792297669e-02 1.7372400460881221e-05 0.0000000000000000e+00  -8.5185999600012730e-06 5.5561766320522676e-02 0.0000000000000000e+00  -9.3687560805209860e-05 5.5458382710768937e-02 0.0000000000000000e+00  -5.5549323724884997e-02 -2.9407734175534052e-05 0.0000000000000000e+00  -5.5429386838307788e-02 2.8208420911735835e-03 0.0000000000000000e+00  -1.6491534800277114e-03 -5.5206079303418865e-02 0.0000000000000000e+00  -1.6629966926552358e-05 -5.5526731920165016e-02 0.0000000000000000e+00  -1.9276607251191315e-03 5.5556996047209324e-02 0.0000000000000000e+00  -5.5414224658363667e-02 9.7369484090203940e-05 0.0000000000000000e+00  1.1072274087843758e-04 -5.5476195823064130e-02 0.0000000000000000e+00  5.5612862195774736e-02 8.0941249902711729e-07 0.0000000000000000e+00  -5.3811880698179465e-02 -5.8650085424807157e-05 0.0000000000000000e+00  5.5596471093109112e-02 -4.2758071996569809e-06 0.0000000000000000e+00  5.3482180184925038e-02 -1.8896895127190605e-04 0.0000000000000000e+00  -5.3462735508356840e-02 -4.0273858117098024e-04 0.0000000000000000e+00  2.6475226849661831e-05 5.5529599710863208e-02 0.0000000000000000e+00  8.5203720816466212e-05 -5.5545551006106135e-02 0.0000000000000000e+00  5.3189957668171493e-02 1.4831131777607040e-03 0.0000000000000000e+00  1.5623127362066960e-03 5.4921985895659650e-02 0.0000000000000000e+00  5.8520939662271240e-05 5.5541092546904335e-02 0.0000000000000000e+00  5.3979389885232328e-02 9.8921434116063366e-05 0.0000000000000000e+00  -5.5611427880111280e-02 -6.5275896749244031e-06 0.0000000000000000e+00  -5.0535079375129931e-02 8.1469256363941268e-05 0.0000000000000000e+00  7.0861512968548008e-05 4.9511978584267181e-02 0.0000000000000000e+00  -1.3509296845631333e-05 -5.5635111507348532e-02 0.0000000000000000e+00  -2.1980222075021046e-04 -5.0147706291166307e-02 0.0000000000000000e+00  5.5642696601469165e-02 -4.0997831704701543e-05 0.0000000000000000e+00  5.0253515599508955e-02 1.2723361939246961e-04 0.0000000000000000e+00  3.9049773826952831e-05 5.1038703081485566e-02 0.0000000000000000e+00  -5.4787829258107948e-02 2.9279598242548893e-04 0.0000000000000000e+00  -2.0052232426091544e-04 -5.0952693906739670e-02 0.0000000000000000e+00  2.4478052911349602e-04 5.1565046418278346e-02 0.0000000000000000e+00  -1.0137319954976154e-04 -5.1754970549150604e-02 0.0000000000000000e+00  1.5538155720924858e-02 1.5329712816419806e-02 0.0000000000000000e+00  2.9716409471267899e-02 3.4197113581083849e-02 0.0000000000000000e+00  -4.0072886179982337e-03 1.9480111481555977e-02 0.0000000000000000e+00  1.8878520004831803e-03 -5.4957483775116889e-02 0.0000000000000000e+00  -5.4786001672275139e-02 -1.7237890275049758e-03 0.0000000000000000e+00  -2.3541858984164485e-05 5.5448808190827190e-02 0.0000000000000000e+00  -4.2586730824676392e-06 -5.5546528582036583e-02 0.0000000000000000e+00  0.0000000000000000e+00 0.0000000000000000e+00 0.0000000000000000e+00  0.0000000000000000e+00 0.0000000000000000e+00 0.0000000000000000e+00  2.4309242576278900e-03 -4.7706646580233568e-02 0.0000000000000000e+00  -4.7656227331534885e-02 -1.6914210044465044e-03 0.0000000000000000e+00  -1.8132901903051050e-02 -4.7563985550348881e-03 0.0000000000000000e+00  2.9494917665307430e-02 -3.8673284520896051e-02 0.0000000000000000e+00  -4.8145187894659741e-02 -2.2657603182679044e-02 0.0000000000000000e+00  4.7441861251591000e-02 1.1645628152751458e-03 0.0000000000000000e+00  4.7168305057291150e-04 4.7065601746844467e-02 0.0000000000000000e+00  4.8797308976268501e-03 -1.7957267043025561e-02 0.0000000000000000e+00  0.0000000000000000e+00 0.0000000000000000e+00 0.0000000000000000e+00  5.1838219076804602e-02 -7.9444349298906389e-04 0.0000000000000000e+00  -4.3514480793354756e-03 -5.5566175129786163e-02 0.0000000000000000e+00  0.0000000000000000e+00 0.0000000000000000e+00 0.0000000000000000e+00  2.1685568586046790e-04 -5.1797027652581047e-02 0.0000000000000000e+00  0.0000000000000000e+00 0.0000000000000000e+00 0.0000000000000000e+00  2.9753524274271788e-04 5.2407775296384941e-02 0.0000000000000000e+00  -5.2562387051562250e-02 -4.5200027758815215e-04 0.0000000000000000e+00  0.0000000000000000e+00 0.0000000000000000e+00 0.0000000000000000e+00  0.0000000000000000e+00 0.0000000000000000e+00 0.0000000000000000e+00  0.0000000000000000e+00 0.0000000000000000e+00 0.0000000000000000e+00  3.6146662459865808e-05 -5.5527122452642873e-02 0.0000000000000000e+00  -7.7589858511198267e-05 5.5442251434985608e-02 0.0000000000000000e+00  5.5573525418390793e-02 1.5210716527141172e-05 0.0000000000000000e+00  5.4950067622453948e-02 -7.6520253382215812e-04 0.0000000000000000e+00  -5.5387936631643347e-02 -4.1744968167991889e-05 0.0000000000000000e+00  3.7006359195538938e-05 -5.5460056196331591e-02 0.0000000000000000e+00  7.8978249448283767e-05 5.5598458938009444e-02 0.0000000000000000e+00  -5.5652062698777538e-02 8.4287896042588233e-06 0.0000000000000000e+00  5.1072226079484168e-02 3.8631542588851660e-06 0.0000000000000000e+00  0.0000000000000000e+00 0.0000000000000000e+00 0.0000000000000000e+00  0.0000000000000000e+00 0.0000000000000000e+00 0.0000000000000000e+00  9.9625231130851368e-04 -5.2811257663487494e-02 0.0000000000000000e+00  -2.9115411255020468e-04 5.2973339667301410e-02 0.0000000000000000e+00  0.0000000000000000e+00 0.0000000000000000e+00 0.0000000000000000e+00  -5.4293637529669175e-02 6.1275027385198906e-04 0.0000000000000000e+00  0.0000000000000000e+00 0.0000000000000000e+00 0.0000000000000000e+00  0.0000000000000000e+00 0.0000000000000000e+00 0.0000000000000000e+00  5.4149135383321077e-02 2.0547837938698015e-04 0.0000000000000000e+00  -5.3768660029751933e-02 -5.2417453974750217e-05 0.0000000000000000e+00  0.0000000000000000e+00 0.0000000000000000e+00 0.0000000000000000e+00  0.0000000000000000e+00 0.0000000000000000e+00 0.0000000000000000e+00  -2.6036717784335726e-02 -4.1003835853692078e-02 0.0000000000000000e+00  -8.9362991491567250e-05 -5.5647985505045482e-02 0.0000000000000000e+00  -5.5417026781858815e-02 1.1684955576748275e-04 0.0000000000000000e+00  5.5546042278067212e-02 -1.4133685138043577e-05 0.0000000000000000e+00  5.0167725777424450e-05 5.5560210714934527e-02 0.0000000000000000e+00  -5.2995059842929092e-02 -2.2882768543919964e-04 0.0000000000000000e+00  2.7667792616930170e-04 5.2691836430076897e-02 0.0000000000000000e+00  -1.2669451556129570e-04 5.1793483981796715e-02 0.0000000000000000e+00  1.7792279931192184e-04 -5.2313171008863492e-02 0.0000000000000000e+00  6.6240886503458061e-05 -5.5492073302821673e-02 0.0000000000000000e+00  0.0000000000000000e+00 0.0000000000000000e+00 0.0000000000000000e+00  6.7505900900988585e-06 -5.5511741720529369e-02 0.0000000000000000e+00  -2.9164524506991134e-02 5.6860287753210323e-03 0.0000000000000000e+00  -4.3586609344368366e-02 2.9072282868268767e-02 0.0000000000000000e+00  5.0727662714781900e-02 2.3286639804094417e-02 0.0000000000000000e+00  -3.6246776152419544e-03 -5.2560552719576846e-02 0.0000000000000000e+00  1.5795210728424495e-02 -1.1731350079860882e-04 0.0000000000000000e+00  -5.3018050963804582e-02 -4.4977918658395535e-04 0.0000000000000000e+00  1.8047318931250277e-05 -5.2823345970160744e-02 0.0000000000000000e+00  -4.7175155643926919e-04 5.2988452508399758e-02 0.0000000000000000e+00  5.2563525749009771e-02 9.9582043608775997e-05 0.0000000000000000e+00  5.3139155420174333e-02 8.7448904763312644e-05 0.0000000000000000e+00  4.2342400751130168e-04 5.4843777826644804e-02 0.0000000000000000e+00  5.3653909799538060e-02 7.5571349338989587e-04 0.0000000000000000e+00  5.6905231879019436e-05 -5.5544898997753889e-02 0.0000000000000000e+00  4.3033288361731574e-05 5.5558352408940803e-02 0.0000000000000000e+00  5.5465490920454434e-02 2.8267986304622948e-05 0.0000000000000000e+00  -5.5491644032622342e-02 1.0597549187785453e-04 0.0000000000000000e+00  -5.2212558773840657e-02 4.7423372938746678e-04 0.0000000000000000e+00  -4.2229397417960717e-04 -5.4742347568442318e-02 0.0000000000000000e+00  -3.1618323005933540e-04 -5.1747391642969112e-02 0.0000000000000000e+00  -5.4796548989623571e-02 9.3377195621057883e-04 0.0000000000000000e+00  5.5606065658122747e-02 3.5629116612139724e-05 0.0000000000000000e+00  2.3111948488444218e-05 5.5596577445950777e-02 0.0000000000000000e+00  5.4783459230177509e-02 7.8319858152257524e-04 0.0000000000000000e+00  -6.6320153294953214e-03 3.4614311208789675e-02 0.0000000000000000e+00  0.0000000000000000e+00 0.0000000000000000e+00 0.0000000000000000e+00  0.0000000000000000e+00 0.0000000000000000e+00 0.0000000000000000e+00  0.0000000000000000e+00 0.0000000000000000e+00 0.0000000000000000e+00  -1.3265752717722002e-05 5.5570692109529127e-02 0.0000000000000000e+00  4.5934125369817647e-05 5.5402173979590359e-02 0.0000000000000000e+00  5.5322644088835804e-05 -5.5435860042123433e-02 0.0000000000000000e+00  -5.5536346035122156e-02 2.3984087989707516e-05 0.0000000000000000e+00  0.0000000000000000e+00 0.0000000000000000e+00 0.0000000000000000e+00  -2.7910370783683977e-05 -5.5519322434511256e-02 0.0000000000000000e+00  0.0000000000000000e+00 0.0000000000000000e+00 0.0000000000000000e+00  -5.1557044355537235e-02 -1.7892337444040115e-05 0.0000000000000000e+00  -7.7969817682613146e-05 -5.5508192600259965e-02 0.0000000000000000e+00  -4.0113645957368478e-03 5.1543868920804724e-02 0.0000000000000000e+00  -5.8538706658592728e-03 5.4260249913322921e-02 0.0000000000000000e+00  -5.5702623345501426e-02 7.5816230053595145e-0