<?xml version="1.0"?>
<VTKFile type="UnstructuredGrid"  version="0.1"  >
<UnstructuredGrid>
<Piece  NumberOfPoints="778" NumberOfCells="1401">
<Points>
<DataArray  type="Float64"  NumberOfComponents="3"  format="ascii">1 -1 0  6 -1 0  6 1 0  1 1 0  1 6 0  -1 6 0  -1 1 0  -6 1 0  -6 -1 0  -1 -1 0  -1 -6 0  1 -6 0  1 3.5 0  -1 3.5 0  -1 -3.5 0  1 -3.5 0  3.5 -1 0  3.5 1 0  -3.5 -1 0  -3.5 1 0  -1 -2.25 0  1 -2.25 0  2.25 -1 0  2.25 1 0  -1 2.25 0  1 2.25 0  -1 4.75 0  1 4.75 0  -4.75 -1 0  -4.75 1 0  -2.25 1 0  -2.25 -1 0  1 -4.75 0  -1 -4.75 0  4.75 1 0  4.75 -1 0  0 0 0  -2.875 0 0  -1.625 0 0  -4.125 0 0  -6 0 0  0 2.875 0  2.875 0 0  0 6 0  1.625 0 0  0 -2.875 0  0 -1.625 0  0 1.625 0  0 4.125 0  0 -6 0  0 -4.125 0  4.125 0 0  6 0 0  -0.109375 5.0625 0  -5.0625 -0.109375 0  -0.109375 -5.0625 0  5.0625 0.109375 0  0.8125 -0.1875 0  -0.1875 -0.8125 0  -0.8125 0.1875 0  -0.1875 0.8125 0  1 5.375 0  -5.375 1 0  1 -5.375 0  5.375 -1 0  0.53515625 0.46484375 0  -5.375 -1 0  -1 5.375 0  -1 -5.375 0  -0.5 -6 0  5.375 1 0  6 0.5 0  3.5 0.3046875 0  3.43125 -0.34765625 0  2.875 -1 0  4.125 1 0  0.3046875 3.5 0  -0.34765625 3.56875 0  -1 4.125 0  1 4.125 0  -0.3046875 2.25 0  0.34765625 2.18125 0  1 1.625 0  -1 -1.625 0  -0.3046875 -3.5 0  0.34765625 -3.56875 0  1 -4.125 0  0.3046875 -2.25 0  -0.34765625 -2.18125 0  -1 -4.125 0  -1 -2.875 0  1 -2.875 0  1 -1.625 0  1.625 -1 0  1.625 1 0  2.25 0.3046875 0  2.18125 -0.34765625 0  4.125 -1 0  2.875 1 0  1 2.875 0  -1 1.625 0  -1 2.875 0  -4.125 -1 0  -2.25 0.3046875 0  -2.31875 -0.34765625 0  -2.875 -1 0  -1.625 1 0  -4.125 1 0  -3.5 0.3046875 0  -3.56875 -0.34765625 0  -1.625 -1 0  -2.875 1 0  0.380626321794301 1.06853329530276 0  -1.110819327731092 -0.3739495798319328 0  0.3739495798319328 -1.110819327731092 0  1.151210293219304 0.3991939332620648 0  -0.5 -4.4375 0  0.5 -4.4375 0  5.481553398058253 -0.3712833737864077 0  0.5 4.4375 0  0.5 6 0  -0.522503783594538 -0.3265648647465863 0  -1.3125 0.5 0  -0.5 6 0  0.3265648647465863 -0.522503783594538 0  4.4375 0.5 0  4.4375 -0.5 0  0.5 -6 0  -6 -0.5 0  -5.481553398058253 0.3712833737864077 0  -4.55 -0.4296875 0  -4.4375 0.5 0  -0.5 4.4375 0  0.4792930825242718 5.026881067961165 0  0.4792930825242718 -5.026881067961165 0  -0.5 1.3125 0  1.3125 -0.5 0  -0.5 -1.3125 0  0.25 5.518539952962044 0  0.2125133872612723 -5.500076563152851 0  4.969341874373811 -0.5152550785163683 0  -4.969341874373811 0.5152550785163683 0  3.927189744345589 -0.4712876597840069 0  -5.554036458333333 -0.25 0  5.554036458333333 0.25 0  -0.4690710616438356 -5.462756849315069 0  -0.4690710616438356 5.462756849315069 0  -6 0.5 0  -1.59556436210848 -0.5 0  -3.058421751829955 -0.5 0  -0.5 2.731982421875 0  0.5 2.691578248170045 0  2.691578248170045 -0.5 0  1.641211254104555 0.5 0  0.5 -1.768017578125 0  0.5 -3.058421751829955 0  0.5 1.699267578125 0  3.018017578125 0.5 0  -0.5 -3.018017578125 0  -2.731982421875 0.5 0  6 -0.5 0  -4.050017120925308 -0.5006099332648871 0  -3.940668202764977 0.5371363767281105 0  3.940668202764977 0.5371363767281105 0  0.4517449476047904 3.958458083832335 0  -0.4517449476047904 -3.958458083832335 0  -1.809331797235023 0.5371363767281105 0  -0.4517449476047904 1.791541916167665 0  -0.0546875 4.59375 0  -5.006445312499999 -0.58984375 0  4.605643203883496 -0.04725424757281554 0  4.90625 0.5546875 0  -0.5546875 4.90625 0  0.04725424757281554 -4.605643203883496 0  -0.586116118210531 -4.995821561900013 0  -4.603710222472543 0.04846236095466061 0  -3.1875 0.65234375 0  0.6163907621110913 3.147502300973589 0  2.5625 0.65234375 0  0.6163907621110913 -2.602497699026411 0  -0.637456713551384 3.189259902731882 0  -0.637456713551384 -2.560740097268118 0  -0.34765625 0.34765625 0  -0.639453125 0.708203125 0  0.089630126953125 0.437286376953125 0  -0.4238281249999999 -1.746875 0  1.746875 -0.4238281249999999 0  -0.4238281249999999 4.003125 0  0.4238281249999999 -4.003125 0  -2.5625 -1 0  3.1875 -1 0  -0.09375 -1.21875 0  1.21875 -0.09375 0  0.4020305405760241 -0.1120343241705621 0  -0.6280191027904287 -0.7577505545748082 0  0.90625 -0.59375 0  -1.205500904741459 0.03633725387965409 0  -0.02129048848213058 1.202028574265107 0  -0.1120343241705621 -0.4020305405760241 0  1 1.3125 0  -2.003587563743074 -0.6442361556699288 0  0.6640077663259718 -1.395873598614549 0  5.6875 -1 0  0.6308138580859101 -5.592151086468728 0  -5.6875 -1 0  0.6568032075915271 5.612942566073222 0  5.616530031741774 0.6612875396772174 0  -5.6875 1 0  1.9375 1 0  -1.3125 -1 0  0.1524679547155687 -3.232579139388032 0  0.1524679547155687 2.517420860611968 0  -3.232579139388032 -0.1524679547155687 0  -1.932320553757026 -0.252759244693845 0  2.517420860611968 -0.1524679547155687 0  -0.04776045819569434 -2.464949198504599 0  -0.2420369079104247 3.187693796852321 0  3.751304711039982 -0.1203080877045035 0  -5.397601941771943 -0.609026059866711 0  1.3125 1 0  1.9375 -1 0  -0.6946315101963667 -2.018229242739021 0  -0.6946315101963667 3.731770757260979 0  1 -3.8125 0  2.014364435550335 0.6166648446293641 0  -1 5.6875 0  -1 -5.6875 0  -2.653476149871182 -0.5942957192996303 0  3.096523850128818 -0.5942957192996303 0  1 1.9375 0  -3.8125 -1 0  0.586975531244212 -0.7975955463807081 0  -0.2946248980953088 -4.743710873809568 0  2.625453376770019 0.2814788818359375 0  -3.124546623229981 0.2814788818359375 0  -0.1204856417894853 5.631800603217465 0  5.253862011026742 0.6581468962876398 0  -0.65234375 2.108701557941197 0  0.65234375 3.641298442058803 0  -0.65234375 -3.641298442058803 0  -0.25 -5.744880569758637 0  -4.4375 -1 0  -0.3166212631734941 -2.713595940002554 0  0.6591479224207506 0.1324305912687024 0  0.8660781906552419 0.6468634238104103 0  -0.9887189158197679 0.6452930723873549 0  0.3149351927204296 -1.460971774996065 0  -0.3572852727880474 -0.009629022788047503 0  2.09375 -0.6866724363772454 0  0.6866724363772454 -3.65625 0  0.6866724363772454 2.09375 0  -3.65625 -0.6866724363772454 0  -3.5371337890625 0.65234375 0  -0.1389584113023952 1.944025352615082 0  -2.151744288472698 0.65234375 0  -0.1389584113023951 -3.805974647384918 0  0.1389584113023951 3.805974647384918 0  -2.578772109813904 0.1857224367977529 0  3.171227890186096 0.1857224367977529 0  3.360315647536819 0.65234375 0  0.1857224367977528 -1.921227890186096 0  0.65234375 -2.110315647536819 0  1.894016528727564 0.2415406141485869 0  -3.738232421875 0 0  0.2516875549238616 3.139069895099618 0  -1.913724396854074 0.2011142179916434 0  0.1669456568161915 0.7843410671359501 0  -2.5625 1 0  -1 -3.1875 0  -1 2.5625 0  0.1736601499778735 4.857955663330752 0  -0.1893536587212888 2.577300639071919 0  -0.1893536587212888 -3.172699360928081 0  3.852271904453858 0.206603749322895 0  -3.8125 1 0  -0.1250095034621793 -5.421707592768541 0  3.8125 -1 0  3.617304217264373 -0.6578427703661498 0  0.2630176195580202 -2.636558318495885 0  0.2674330357770522 1.399517071108871 0  0.631726413079416 1.339254523727593 0  4.700571879807737 0.2813704945051134 0  0.7143844363649634 -3.319538455208831 0  2.430461544791169 -0.7143844363649634 0  0.7143844363649634 2.430461544791169 0  -3.319538455208831 -0.7143844363649634 0  5.687045771608623 -0.6520598572553891 0  -5.687045771608623 0.6520598572553891 0  -1.15625 -0.7048248829733235 0  3.438284572973296 -0.01860298867862281 0  -0.03021088078697859 3.451572359862192 0  2.216682837011589 -0.02159585961918548 0  -2.191580885932936 -0.03126387444658879 0  0.1857410764408683 1.895679405349457 0  3.103473238297955 -0.253270943723272 0  -2.646526761702045 -0.253270943723272 0  -2.333137350671861 -0.6791984914172315 0  -1 5.0625 0  -0.6971235589909319 5.213002544375844 0  0.01618705363819947 2.225929180591695 0  0.01618705363819947 -3.524070819408305 0  0.5690054882403073 0.7951310720450595 0  -0.5764940424412852 -3.329579265180942 0  -0.5764940424412852 2.420420734819058 0  3.8125 1 0  -5.372163860234628 0.04365139563106807 0  5.164108319316826 -0.225040894204947 0  -5.361952437854323 0.6744012088984681 0  -5.0625 1 0  5.286835586913878 -0.6616705837083201 0  -5.692815197359722 0.1186699900166531 0  5.663425996156958 -0.07763197815533956 0  -0.9219866027132193 -0.1143045829323572 0  -1.394333629759332 -0.2233077430199216 0  0.09322478991596644 -0.9616596638655462 0  5.0625 -1 0  -0.14412109375 -1.92169189453125 0  -4.28125 -0.7212148987671345 0  0.2649796277366407 0.1735162902120744 0  -4.907855692236596 0.1868230509619793 0  -1.9375 1 0  1 5.0625 0  0.6915124486819284 -5.272938212550202 0  0.683483242673902 5.284948082526911 0  2.5625 -1 0  -1 -3.8125 0  -1 1.9375 0  5.0625 1 0  -1 -1.9375 0  1 5.6875 0  1 -5.6875 0  -1.9375 -1 0  -1 -2.5625 0  -1 3.1875 0  1 -3.1875 0  1 -2.5625 0  1 2.5625 0  1 3.1875 0  -5.0625 -1 0  -1 -1.3125 0  1.3125 -1 0  -1 1.3125 0  -1 3.8125 0  -1 4.4375 0  -4.4375 1 0  4.4375 -1 0  4.4375 1 0  -1.3125 1 0  1 4.4375 0  1 -4.4375 0  -1 -5.0625 0  -1 -4.4375 0  -3.1875 1 0  2.5625 1 0  1 -1.9375 0  1 -1.3125 0  5.6875 1 0  1 3.8125 0  3.1875 1 0  -3.1875 -1 0  1 -5.0625 0  1.35138038998199 0.6675097549271188 0  -0.465625 0.986328125 0  1.435958105992309 0.2563920171199723 0  1.915914614192913 -0.145782394639918 0  -0.8764440609469509 -0.5746869313612541 0  5.355194559946098 0.01566259380337612 0  -5.69333042954964 -0.5242868300459975 0  1.78125 -0.7320750794491524 0  0.7320750794491525 -3.96875 0  -0.3959075548864684 5.166422468926435 0  -4.770522389068053 -0.2123670725088856 0  -4.714160156249999 -0.69234375 0  -4.273484403713342 -0.278160994327167 0  0.9642590244517505 0.08196089404241463 0  0.3500261717645397 -4.727285205957206 0  0.6740868006020392 -4.765147848348443 0  0.6797550207247084 -1.089747806381148 0  -5.186479934354063 0.3046329157552757 0  -5.263288238215326 -0.3369092276308425 0  -2.433484016245305 0.5442571297016638 0  0.1707808983307866 -3.82363304980935 0  -0.1554012991031027 3.867535742674252 0  4.855508096805579 -0.2283975605264581 0  3.644517238097614 0.5646428152488787 0  0.05699603874439441 -0.6452791208413911 0  -0.3550018917972689 -0.5695324323732931 0  0.6
[...]
<PointData  Vectors="u"> 
<DataArray  type="Float64"  Name="u"  NumberOfComponents="3" format="ascii">0.0000000000000000e+00 0.0000000000000000e+00 0.0000000000000000e+00  0.0000000000000000e+00 0.0000000000000000e+00 0.0000000000000000e+00  0.0000000000000000e+00 0.0000000000000000e+00 0.0000000000000000e+00  0.0000000000000000e+00 0.0000000000000000e+00 0.0000000000000000e+00  0.0000000000000000e+00 0.0000000000000000e+00 0.0000000000000000e+00  0.0000000000000000e+00 0.0000000000000000e+00 0.0000000000000000e+00  0.0000000000000000e+00 0.0000000000000000e+00 0.0000000000000000e+00  0.0000000000000000e+00 0.0000000000000000e+00 0.0000000000000000e+00  0.0000000000000000e+00 0.0000000000000000e+00 0.0000000000000000e+00  0.0000000000000000e+00 0.0000000000000000e+00 0.0000000000000000e+00  0.0000000000000000e+00 0.0000000000000000e+00 0.0000000000000000e+00  0.0000000000000000e+00 0.0000000000000000e+00 0.0000000000000000e+00  0.0000000000000000e+00 0.0000000000000000e+00 0.0000000000000000e+00  0.0000000000000000e+00 0.0000000000000000e+00 0.0000000000000000e+00  0.0000000000000000e+00 0.0000000000000000e+00 0.0000000000000000e+00  0.0000000000000000e+00 0.0000000000000000e+00 0.0000000000000000e+00  0.0000000000000000e+00 0.0000000000000000e+00 0.0000000000000000e+00  0.0000000000000000e+00 0.0000000000000000e+00 0.0000000000000000e+00  0.0000000000000000e+00 0.0000000000000000e+00 0.0000000000000000e+00  0.0000000000000000e+00 0.0000000000000000e+00 0.0000000000000000e+00  0.0000000000000000e+00 0.0000000000000000e+00 0.0000000000000000e+00  0.0000000000000000e+00 0.0000000000000000e+00 0.0000000000000000e+00  0.0000000000000000e+00 0.0000000000000000e+00 0.0000000000000000e+00  0.0000000000000000e+00 0.0000000000000000e+00 0.0000000000000000e+00  0.0000000000000000e+00 0.0000000000000000e+00 0.0000000000000000e+00  0.0000000000000000e+00 0.0000000000000000e+00 0.0000000000000000e+00  0.0000000000000000e+00 0.0000000000000000e+00 0.0000000000000000e+00  0.0000000000000000e+00 0.0000000000000000e+00 0.0000000000000000e+00  0.0000000000000000e+00 0.0000000000000000e+00 0.0000000000000000e+00  0.0000000000000000e+00 0.0000000000000000e+00 0.0000000000000000e+00  0.0000000000000000e+00 0.0000000000000000e+00 0.0000000000000000e+00  0.0000000000000000e+00 0.0000000000000000e+00 0.0000000000000000e+00  0.0000000000000000e+00 0.0000000000000000e+00 0.0000000000000000e+00  0.0000000000000000e+00 0.0000000000000000e+00 0.0000000000000000e+00  0.0000000000000000e+00 0.0000000000000000e+00 0.0000000000000000e+00  0.0000000000000000e+00 0.0000000000000000e+00 0.0000000000000000e+00  -1.9154884824572446e-04 8.4612566027024726e-05 0.0000000000000000e+00  4.0915593311030785e-02 -1.0411532774724490e-05 0.0000000000000000e+00  3.9022329528578079e-02 6.8159315509931491e-05 0.0000000000000000e+00  4.0958352307809788e-02 2.3259354183444582e-06 0.0000000000000000e+00  4.0995072285864090e-02 3.1306049315007984e-05 0.0000000000000000e+00  1.0114624710985031e-05 4.0890633491394761e-02 0.0000000000000000e+00  -4.0834279746215507e-02 3.9242890360072258e-05 0.0000000000000000e+00  3.3228598376527914e-05 4.0855469342250365e-02 0.0000000000000000e+00  -3.9104998289081407e-02 1.0751109519064120e-04 0.0000000000000000e+00  8.0267742268263241e-06 -4.0871450562827823e-02 0.0000000000000000e+00  -2.5851014655480118e-05 -3.8901257146806208e-02 0.0000000000000000e+00  3.5933315357215510e-05 3.8859954917043575e-02 0.0000000000000000e+00  3.4165278562866217e-05 4.0869903477326004e-02 0.0000000000000000e+00  3.4371852097417975e-05 -4.0870295048202963e-02 0.0000000000000000e+00  5.5120926880435475e-05 -4.0923624482182445e-02 0.0000000000000000e+00  -4.0970241673517545e-02 -1.1659524521735336e-05 0.0000000000000000e+00  -4.0924999952165919e-02 -3.8486053897155413e-05 0.0000000000000000e+00  -4.8995383127654400e-05 4.0972817449831132e-02 0.0000000000000000e+00  4.0903970292914801e-02 -4.7970914827389274e-05 0.0000000000000000e+00  -6.4062474844819183e-05 -4.0705041296657578e-02 0.0000000000000000e+00  -4.0815553051284516e-02 -4.8445738780136277e-05 0.0000000000000000e+00  -2.6412388898930651e-02 -5.5361580968608971e-03 0.0000000000000000e+00  5.2652990111904645e-03 -2.5940998936322589e-02 0.0000000000000000e+00  2.5858075689512035e-02 5.4862485092994680e-03 0.0000000000000000e+00  5.5077940708952115e-03 2.5983362130301751e-02 0.0000000000000000e+00  0.0000000000000000e+00 0.0000000000000000e+00 0.0000000000000000e+00  0.0000000000000000e+00 0.0000000000000000e+00 0.0000000000000000e+00  0.0000000000000000e+00 0.0000000000000000e+00 0.0000000000000000e+00  0.0000000000000000e+00 0.0000000000000000e+00 0.0000000000000000e+00  -1.8213338509034459e-02 1.5287944391977540e-02 0.0000000000000000e+00  0.0000000000000000e+00 0.0000000000000000e+00 0.0000000000000000e+00  0.0000000000000000e+00 0.0000000000000000e+00 0.0000000000000000e+00  0.0000000000000000e+00 0.0000000000000000e+00 0.0000000000000000e+00  6.0362599631677268e-05 -3.8994765435105744e-02 0.0000000000000000e+00  0.0000000000000000e+00 0.0000000000000000e+00 0.0000000000000000e+00  -4.0783593076182997e-02 -6.5997602817663972e-07 0.0000000000000000e+00  -4.0848184017043647e-02 5.5902751487138415e-05 0.0000000000000000e+00  -4.0745265055980529e-02 4.2459872807247495e-06 0.0000000000000000e+00  0.0000000000000000e+00 0.0000000000000000e+00 0.0000000000000000e+00  0.0000000000000000e+00 0.0000000000000000e+00 0.0000000000000000e+00  2.0679094660099396e-05 4.0827589916740251e-02 0.0000000000000000e+00  -8.3803022751964193e-06 4.0885326962011824e-02 0.0000000000000000e+00  0.0000000000000000e+00 0.0000000000000000e+00 0.0000000000000000e+00  0.0000000000000000e+00 0.0000000000000000e+00 0.0000000000000000e+00  1.9972314093384910e-04 4.0573161441910623e-02 0.0000000000000000e+00  -3.1278092222982731e-04 4.0697235675676645e-02 0.0000000000000000e+00  0.0000000000000000e+00 0.0000000000000000e+00 0.0000000000000000e+00  0.0000000000000000e+00 0.0000000000000000e+00 0.0000000000000000e+00  4.8291787233883241e-05 -4.0764960165407337e-02 0.0000000000000000e+00  1.3796245041842980e-05 -4.0865136697164219e-02 0.0000000000000000e+00  0.0000000000000000e+00 0.0000000000000000e+00 0.0000000000000000e+00  -1.8262314100721204e-04 -4.0713436237112641e-02 0.0000000000000000e+00  3.8362930359806994e-04 -4.0689958027009525e-02 0.0000000000000000e+00  0.0000000000000000e+00 0.0000000000000000e+00 0.0000000000000000e+00  0.0000000000000000e+00 0.0000000000000000e+00 0.0000000000000000e+00  0.0000000000000000e+00 0.0000000000000000e+00 0.0000000000000000e+00  0.0000000000000000e+00 0.0000000000000000e+00 0.0000000000000000e+00  0.0000000000000000e+00 0.0000000000000000e+00 0.0000000000000000e+00  0.0000000000000000e+00 0.0000000000000000e+00 0.0000000000000000e+00  -4.0523709600165499e-02 2.8580985236186939e-04 0.0000000000000000e+00  -4.0666254340873988e-02 -2.7358886144286676e-04 0.0000000000000000e+00  0.0000000000000000e+00 0.0000000000000000e+00 0.0000000000000000e+00  0.0000000000000000e+00 0.0000000000000000e+00 0.0000000000000000e+00  0.0000000000000000e+00 0.0000000000000000e+00 0.0000000000000000e+00  0.0000000000000000e+00 0.0000000000000000e+00 0.0000000000000000e+00  0.0000000000000000e+00 0.0000000000000000e+00 0.0000000000000000e+00  0.0000000000000000e+00 0.0000000000000000e+00 0.0000000000000000e+00  4.0603201421676088e-02 3.0982400708887744e-04 0.0000000000000000e+00  4.0695193740577611e-02 -2.4335451128631937e-04 0.0000000000000000e+00  0.0000000000000000e+00 0.0000000000000000e+00 0.0000000000000000e+00  0.0000000000000000e+00 0.0000000000000000e+00 0.0000000000000000e+00  0.0000000000000000e+00 0.0000000000000000e+00 0.0000000000000000e+00  4.0605168526621507e-02 6.8781085113391803e-05 0.0000000000000000e+00  4.0895640750275145e-02 1.9812490499211329e-05 0.0000000000000000e+00  0.0000000000000000e+00 0.0000000000000000e+00 0.0000000000000000e+00  0.0000000000000000e+00 0.0000000000000000e+00 0.0000000000000000e+00  -7.6010147024726735e-03 3.4254415285744202e-02 0.0000000000000000e+00  3.5311614429191722e-02 -7.5413806170782898e-03 0.0000000000000000e+00  -7.0865283200125051e-03 -3.5679626555765002e-02 0.0000000000000000e+00  -3.6080620065923351e-02 6.7221579076927416e-03 0.0000000000000000e+00  4.2491298273447875e-05 -3.8830094143041761e-02 0.0000000000000000e+00  -4.2194623776372985e-06 -4.0879620105490642e-02 0.0000000000000000e+00  -4.0811465332038971e-02 -5.0701077990417762e-05 0.0000000000000000e+00  1.6006317960864979e-06 4.0811557406553185e-02 0.0000000000000000e+00  5.0679779147803107e-05 4.0711473582371170e-02 0.0000000000000000e+00  1.7225212664178098e-02 -1.0782607947625068e-02 0.0000000000000000e+00  3.9258347389590484e-02 5.5736607920681813e-03 0.0000000000000000e+00  3.5896013189685140e-05 3.8970842170311409e-02 0.0000000000000000e+00  -1.0263006960214352e-02 -1.7131356630009340e-02 0.0000000000000000e+00  -4.0660504980881786e-02 -1.8089941025277271e-06 0.0000000000000000e+00  -4.0909611808667604e-02 9.8219527747023395e-06 0.0000000000000000e+00  4.2455965049066409e-05 -4.0673754161335958e-02 0.0000000000000000e+00  4.0972554618685743e-02 5.5490716557516817e-06 0.0000000000000000e+00  4.0734867116513120e-02 4.6420857845226074e-05 0.0000000000000000e+00  4.0920974573731936e-02 6.0274894059906659e-06 0.0000000000000000e+00  3.8640728902400133e-02 -1.3875188380241019e-05 0.0000000000000000e+00  3.0292591284179961e-05 4.0621695416802363e-02 0.0000000000000000e+00  -3.7833646070414603e-05 4.0898759481988005e-02 0.0000000000000000e+00  -2.3018736129676196e-05 -4.0804929303838722e-02 0.0000000000000000e+00  6.1393016972494906e-03 4.0455527211177317e-02 0.0000000000000000e+00  -3.9707831377459993e-02 -5.7255074479921836e-03 0.0000000000000000e+00  5.5391454830877639e-03 -3.9296549277674259e-02 0.0000000000000000e+00  2.8041149758916434e-05 4.0824393462533269e-02 0.0000000000000000e+00  -1.9589628043481657e-05 -4.0950676034313328e-02 0.0000000000000000e+00  -4.0951924146743014e-02 -6.1101093423565850e-05 0.0000000000000000e+00  3.8959987279195842e-02 1.1656015767459051e-05 0.0000000000000000e+00  -4.0770576407627102e-02 -2.1458996114933313e-05 0.0000000000000000e+00  4.0808482910348019e-02 -3.7708711430651138e-05 0.0000000000000000e+00  -4.0861833692164166e-02 -1.1172004416271767e-04 0.0000000000000000e+00  4.8384784236236065e-06 -4.0715923087365276e-02 0.0000000000000000e+00  7.2894566641769161e-06 4.0720716011837167e-02 0.0000000000000000e+00  3.9476567477428226e-02 1.0068684866557464e-04 0.0000000000000000e+00  4.0622356658968968e-02 -2.1986667829831737e-03 0.0000000000000000e+00  4.0860952883934674e-02 6.9034913837684849e-06 0.0000000000000000e+00  6.6125786373565140e-06 4.0812385383183360e-02 0.0000000000000000e+00  -8.3886561391278709e-05 4.0683931330923462e-02 0.0000000000000000e+00  -4.0802063210419855e-02 -1.8800463742758302e-05 0.0000000000000000e+00  -4.0681713517699530e-02 2.2031229158682498e-03 0.0000000000000000e+00  -1.3777647505054244e-03 -4.0564471851127146e-02 0.0000000000000000e+00  2.2896972233106265e-06 -4.0711539656095162e-02 0.0000000000000000e+00  -1.5554538726995646e-03 4.0860575953954086e-02 0.0000000000000000e+00  -4.0781822018879609e-02 9.1951186874886687e-05 0.0000000000000000e+00  7.0786824177424058e-05 -4.0747465860909562e-02 0.0000000000000000e+00  4.0746437769079144e-02 4.4426132034167794e-06 0.0000000000000000e+00  -3.9284879772172182e-02 -2.7131760750570051e-05 0.0000000000000000e+00  4.0897827692207192e-02 -4.0575699754357205e-06 0.0000000000000000e+00  3.9087189445823102e-02 -1.4406131048999546e-04 0.0000000000000000e+00  -3.9095571330529363e-02 -3.0636525446522511e-04 0.0000000000000000e+00  3.3442434196136920e-05 4.0753790310911968e-02 0.0000000000000000e+00  6.5114989251178587e-05 -4.0733432502932210e-02 0.0000000000000000e+00  3.8927377660321574e-02 1.1530840804678613e-03 0.0000000000000000e+00  1.2483559040790580e-03 4.0286719143518661e-02 0.0000000000000000e+00  4.7713584834918343e-05 4.0892913193482427e-02 0.0000000000000000e+00  3.9434028530273689e-02 3.4635891427181802e-05 0.0000000000000000e+00  -4.0950194299648836e-02 -8.6989007385258861e-06 0.0000000000000000e+00  -3.6243021457235160e-02 7.2330607463416585e-05 0.0000000000000000e+00  4.8612862342775470e-05 3.5264810175835756e-02 0.0000000000000000e+00  -8.7415767668222700e-06 -4.0968489588585219e-02 0.0000000000000000e+00  -1.4761872870943621e-04 -3.5834263677383696e-02 0.0000000000000000e+00  4.0969054555320648e-02 -2.6428046655269354e-05 0.0000000000000000e+00  3.5672124156791579e-02 7.6087894970350045e-05 0.0000000000000000e+00  1.7488290695016221e-05 3.6518337989764192e-02 0.0000000000000000e+00  -4.0018056592377095e-02 2.3777446179685057e-04 0.0000000000000000e+00  -1.0934114656502083e-04 -3.6473030294455450e-02 0.0000000000000000e+00  1.6263022818901603e-04 3.6756614082720511e-02 0.0000000000000000e+00  -4.8356394643252819e-05 -3.6639188202009128e-02 0.0000000000000000e+00  1.1320233233266469e-02 1.1083935397378647e-02 0.0000000000000000e+00  2.1502292400724838e-02 2.4881989304503006e-02 0.0000000000000000e+00  -2.8812325192636781e-03 1.4200541161311584e-02 0.0000000000000000e+00  1.4930364861138173e-03 -4.0316563839614204e-02 0.0000000000000000e+00  -4.0212669437946220e-02 -1.3378139209376536e-03 0.0000000000000000e+00  -2.0480252372717455e-05 4.0678327672849776e-02 0.0000000000000000e+00  4.6117756503579697e-06 -4.0753431439182315e-02 0.0000000000000000e+00  0.0000000000000000e+00 0.0000000000000000e+00 0.0000000000000000e+00  0.0000000000000000e+00 0.0000000000000000e+00 0.0000000000000000e+00  1.8294670791266193e-03 -3.4855218093574863e-02 0.0000000000000000e+00  -3.4927752712374721e-02 -1.1841602746735633e-03 0.0000000000000000e+00  -1.3236693757119295e-02 -3.4303125591970819e-03 0.0000000000000000e+00  2.1758534872073361e-02 -2.8278758746539189e-02 0.0000000000000000e+00  -3.5135834146360595e-02 -1.6891100599283688e-02 0.0000000000000000e+00  3.4822621415564449e-02 9.3961410800565441e-04 0.0000000000000000e+00  2.9812100772841078e-04 3.4440984731807109e-02 0.0000000000000000e+00  3.5286775202015772e-03 -1.3105550590678146e-02 0.0000000000000000e+00  0.0000000000000000e+00 0.0000000000000000e+00 0.0000000000000000e+00  3.7030912905328277e-02 -5.9030720874187045e-04 0.0000000000000000e+00  -3.8140121786503058e-03 -4.0643460833375659e-02 0.0000000000000000e+00  0.0000000000000000e+00 0.0000000000000000e+00 0.0000000000000000e+00  1.5882702462566728e-04 -3.6898705493440362e-02 0.0000000000000000e+00  0.0000000000000000e+00 0.0000000000000000e+00 0.0000000000000000e+00  2.1043050260231247e-04 3.7513379825929782e-02 0.0000000000000000e+00  -3.7648486537703460e-02 -3.1937827950576244e-04 0.0000000000000000e+00  0.0000000000000000e+00 0.0000000000000000e+00 0.0000000000000000e+00  0.0000000000000000e+00 0.0000000000000000e+00 0.0000000000000000e+00  0.0000000000000000e+00 0.0000000000000000e+00 0.0000000000000000e+00  2.5421396795978632e-05 -4.0880711838894281e-02 0.0000000000000000e+00  -6.5721023488202976e-05 4.0805361821949909e-02 0.0000000000000000e+00  4.0924991147528407e-02 1.0930264686159628e-05 0.0000000000000000e+00  4.0363868027555178e-02 -5.9934141090293351e-04 0.0000000000000000e+00  -4.0775390970191963e-02 -3.4249879948681009e-05 0.0000000000000000e+00  2.8023273568286791e-05 -4.0817588975457911e-02 0.0000000000000000e+00  5.3137907433358913e-05 4.0819354104797360e-02 0.0000000000000000e+00  -4.0974911618286640e-02 7.2597946353758663e-06 0.0000000000000000e+00  3.6194247888428545e-02 1.5855832909640411e-06 0.0000000000000000e+00  0.0000000000000000e+00 0.0000000000000000e+00 0.0000000000000000e+00  0.0000000000000000e+00 0.0000000000000000e+00 0.0000000000000000e+00  7.9308638504069890e-04 -3.7744385019358777e-02 0.0000000000000000e+00  -2.0391453268865509e-04 3.7796843292737213e-02 0.0000000000000000e+00  0.0000000000000000e+00 0.0000000000000000e+00 0.0000000000000000e+00  -3.9654470655530037e-02 4.9954393703304889e-04 0.0000000000000000e+00  0.0000000000000000e+00 0.0000000000000000e+00 0.0000000000000000e+00  0.0000000000000000e+00 0.0000000000000000e+00 0.0000000000000000e+00  3.9665441484217911e-02 1.3390891432880309e-04 0.0000000000000000e+00  -3.9365873418021315e-02 -4.6677421393177860e-05 0.0000000000000000e+00  0.0000000000000000e+00 0.0000000000000000e+00 0.0000000000000000e+00  0.0000000000000000e+00 0.0000000000000000e+00 0.0000000000000000e+00  -1.9082501854619415e-02 -2.9935488554959526e-02 0.0000000000000000e+00  -4.9907518761031888e-05 -4.0745341179785143e-02 0.0000000000000000e+00  -4.0690892766723052e-02 1.0843378542767839e-04 0.0000000000000000e+00  4.0824858041935690e-02 -2.7541398982195350e-06 0.0000000000000000e+00  3.5522746966216558e-05 4.0915971965934127e-02 0.0000000000000000e+00  -3.7782814684123645e-02 -1.8046611427101095e-04 0.0000000000000000e+00  2.1726142277118132e-04 3.7454835315626017e-02 0.0000000000000000e+00  -5.5482200542941752e-05 3.6984029775516389e-02 0.0000000000000000e+00  1.2334487342562572e-04 -3.7200517075849419e-02 0.0000000000000000e+00  4.6471075590710004e-05 -4.0722315979001021e-02 0.0000000000000000e+00  0.0000000000000000e+00 0.0000000000000000e+00 0.0000000000000000e+00  4.8727717593474172e-06 -4.0691350951510080e-02 0.0000000000000000e+00  -2.1200329872147823e-02 4.2252307775966719e-03 0.0000000000000000e+00  -3.1821936477706869e-02 2.1370784882877168e-02 0.0000000000000000e+00  3.6936220269481179e-02 1.7189964361447246e-02 0.0000000000000000e+00  -2.8238355051910737e-03 -3.8522040698414667e-02 0.0000000000000000e+00  1.1474218338559114e-02 4.2866866501030066e-05 0.0000000000000000e+00  -3.7987576285890674e-02 -3.5490059058515690e-04 0.0000000000000000e+00  1.4002430060214975e-05 -3.7900559294002122e-02 0.0000000000000000e+00  -3.7445678291837256e-04 3.7960026879420072e-02 0.0000000000000000e+00  3.7609009039764531e-02 6.1770867954579533e-05 0.0000000000000000e+00  3.7809201841689004e-02 3.7138068888530442e-05 0.0000000000000000e+00  3.2521943081611576e-04 4.0331610493696497e-02 0.0000000000000000e+00  3.8068625938733711e-02 6.1973032820687593e-04 0.0000000000000000e+00  4.9560795966983846e-05 -4.0899422191374442e-02 0.0000000000000000e+00  3.4879251603364692e-05 4.0909869404963946e-02 0.0000000000000000e+00  4.0763112519687429e-02 3.2500505848730800e-05 0.0000000000000000e+00  -4.0872554387963722e-02 7.6621880995172672e-05 0.0000000000000000e+00  -3.7016366290754506e-02 3.2108009034544354e-04 0.0000000000000000e+00  -3.1653532290327753e-04 -4.0263275022137342e-02 0.0000000000000000e+00  -2.6826858831162067e-04 -3.6710375303315716e-02 0.0000000000000000e+00  -4.0282192539953063e-02 7.4882849742726094e-04 0.0000000000000000e+00  4.0942789406482147e-02 3.0390459335124128e-05 0.0000000000000000e+00  1.5193045523226351e-05 4.0872728623318103e-02 0.0000000000000000e+00  4.0281597688338319e-02 6.2428069322291327e-04 0.0000000000000000e+00  -4.8215157501549262e-03 2.5279021126243868e-02 0.0000000000000000e+00  0.0000000000000000e+00 0.0000000000000000e+00 0.0000000000000000e+00  0.0000000000000000e+00 0.0000000000000000e+00 0.0000000000000000e+00  0.0000000000000000e+00 0.0000000000000000e+00 0.0000000000000000e+00  -1.2135533095152498e-05 4.0927130531237262e-02 0.0000000000000000e+00  3.4467664367263440e-05 4.0759910586621081e-02 0.0000000000000000e+00  4.5451529179854147e-05 -4.0806223796666596e-02 0.0000000000000000e+00  -4.0751457651562274e-02 4.0159639111852006e-07 0.0000000000000000e+00  0.0000000000000000e+00 0.0000000000000000e+00 0.0000000000000000e+00  -1.5647377793228441e-05 -4.0889098044885552e-02 0.0000000000000000e+00  0.0000000000000000e+00 0.0000000000000000e+00 0.0000000000000000e+00  -3.6707426018523684e-02 -3.1636000022852461e-05 0.0000000000000000e+00  -6.7220177773014784e-05 -4.0816404911655335e-02 0.0000000000000000e+00  -3.1210315734622176e-03 3.7691627542213321e-02 0.0000000000000000e+00  -4.9436457826725101e-03 3.9773317940875873e-02 0.0000000000000000e+00  -4.0964605224179163e-02 5.6552031464045606e-06 0.00