<?xml version="1.0"?>
<VTKFile type="UnstructuredGrid"  version="0.1"  >
<UnstructuredGrid>
<Piece  NumberOfPoints="778" NumberOfCells="1401">
<Points>
<DataArray  type="Float64"  NumberOfComponents="3"  format="ascii">1 -1 0  6 -1 0  6 1 0  1 1 0  1 6 0  -1 6 0  -1 1 0  -6 1 0  -6 -1 0  -1 -1 0  -1 -6 0  1 -6 0  1 3.5 0  -1 3.5 0  -1 -3.5 0  1 -3.5 0  3.5 -1 0  3.5 1 0  -3.5 -1 0  -3.5 1 0  -1 -2.25 0  1 -2.25 0  2.25 -1 0  2.25 1 0  -1 2.25 0  1 2.25 0  -1 4.75 0  1 4.75 0  -4.75 -1 0  -4.75 1 0  -2.25 1 0  -2.25 -1 0  1 -4.75 0  -1 -4.75 0  4.75 1 0  4.75 -1 0  0 0 0  -2.875 0 0  -1.625 0 0  -4.125 0 0  -6 0 0  0 2.875 0  2.875 0 0  0 6 0  1.625 0 0  0 -2.875 0  0 -1.625 0  0 1.625 0  0 4.125 0  0 -6 0  0 -4.125 0  4.125 0 0  6 0 0  -0.109375 5.0625 0  -5.0625 -0.109375 0  -0.109375 -5.0625 0  5.0625 0.109375 0  0.8125 -0.1875 0  -0.1875 -0.8125 0  -0.8125 0.1875 0  -0.1875 0.8125 0  1 5.375 0  -5.375 1 0  1 -5.375 0  5.375 -1 0  0.53515625 0.46484375 0  -5.375 -1 0  -1 5.375 0  -1 -5.375 0  -0.5 -6 0  5.375 1 0  6 0.5 0  3.5 0.3046875 0  3.43125 -0.34765625 0  2.875 -1 0  4.125 1 0  0.3046875 3.5 0  -0.34765625 3.56875 0  -1 4.125 0  1 4.125 0  -0.3046875 2.25 0  0.34765625 2.18125 0  1 1.625 0  -1 -1.625 0  -0.3046875 -3.5 0  0.34765625 -3.56875 0  1 -4.125 0  0.3046875 -2.25 0  -0.34765625 -2.18125 0  -1 -4.125 0  -1 -2.875 0  1 -2.875 0  1 -1.625 0  1.625 -1 0  1.625 1 0  2.25 0.3046875 0  2.18125 -0.34765625 0  4.125 -1 0  2.875 1 0  1 2.875 0  -1 1.625 0  -1 2.875 0  -4.125 -1 0  -2.25 0.3046875 0  -2.31875 -0.34765625 0  -2.875 -1 0  -1.625 1 0  -4.125 1 0  -3.5 0.3046875 0  -3.56875 -0.34765625 0  -1.625 -1 0  -2.875 1 0  0.380626321794301 1.06853329530276 0  -1.110819327731092 -0.3739495798319328 0  0.3739495798319328 -1.110819327731092 0  1.151210293219304 0.3991939332620648 0  -0.5 -4.4375 0  0.5 -4.4375 0  5.481553398058253 -0.3712833737864077 0  0.5 4.4375 0  0.5 6 0  -0.522503783594538 -0.3265648647465863 0  -1.3125 0.5 0  -0.5 6 0  0.3265648647465863 -0.522503783594538 0  4.4375 0.5 0  4.4375 -0.5 0  0.5 -6 0  -6 -0.5 0  -5.481553398058253 0.3712833737864077 0  -4.55 -0.4296875 0  -4.4375 0.5 0  -0.5 4.4375 0  0.4792930825242718 5.026881067961165 0  0.4792930825242718 -5.026881067961165 0  -0.5 1.3125 0  1.3125 -0.5 0  -0.5 -1.3125 0  0.25 5.518539952962044 0  0.2125133872612723 -5.500076563152851 0  4.969341874373811 -0.5152550785163683 0  -4.969341874373811 0.5152550785163683 0  3.927189744345589 -0.4712876597840069 0  -5.554036458333333 -0.25 0  5.554036458333333 0.25 0  -0.4690710616438356 -5.462756849315069 0  -0.4690710616438356 5.462756849315069 0  -6 0.5 0  -1.59556436210848 -0.5 0  -3.058421751829955 -0.5 0  -0.5 2.731982421875 0  0.5 2.691578248170045 0  2.691578248170045 -0.5 0  1.641211254104555 0.5 0  0.5 -1.768017578125 0  0.5 -3.058421751829955 0  0.5 1.699267578125 0  3.018017578125 0.5 0  -0.5 -3.018017578125 0  -2.731982421875 0.5 0  6 -0.5 0  -4.050017120925308 -0.5006099332648871 0  -3.940668202764977 0.5371363767281105 0  3.940668202764977 0.5371363767281105 0  0.4517449476047904 3.958458083832335 0  -0.4517449476047904 -3.958458083832335 0  -1.809331797235023 0.5371363767281105 0  -0.4517449476047904 1.791541916167665 0  -0.0546875 4.59375 0  -5.006445312499999 -0.58984375 0  4.605643203883496 -0.04725424757281554 0  4.90625 0.5546875 0  -0.5546875 4.90625 0  0.04725424757281554 -4.605643203883496 0  -0.586116118210531 -4.995821561900013 0  -4.603710222472543 0.04846236095466061 0  -3.1875 0.65234375 0  0.6163907621110913 3.147502300973589 0  2.5625 0.65234375 0  0.6163907621110913 -2.602497699026411 0  -0.637456713551384 3.189259902731882 0  -0.637456713551384 -2.560740097268118 0  -0.34765625 0.34765625 0  -0.639453125 0.708203125 0  0.089630126953125 0.437286376953125 0  -0.4238281249999999 -1.746875 0  1.746875 -0.4238281249999999 0  -0.4238281249999999 4.003125 0  0.4238281249999999 -4.003125 0  -2.5625 -1 0  3.1875 -1 0  -0.09375 -1.21875 0  1.21875 -0.09375 0  0.4020305405760241 -0.1120343241705621 0  -0.6280191027904287 -0.7577505545748082 0  0.90625 -0.59375 0  -1.205500904741459 0.03633725387965409 0  -0.02129048848213058 1.202028574265107 0  -0.1120343241705621 -0.4020305405760241 0  1 1.3125 0  -2.003587563743074 -0.6442361556699288 0  0.6640077663259718 -1.395873598614549 0  5.6875 -1 0  0.6308138580859101 -5.592151086468728 0  -5.6875 -1 0  0.6568032075915271 5.612942566073222 0  5.616530031741774 0.6612875396772174 0  -5.6875 1 0  1.9375 1 0  -1.3125 -1 0  0.1524679547155687 -3.232579139388032 0  0.1524679547155687 2.517420860611968 0  -3.232579139388032 -0.1524679547155687 0  -1.932320553757026 -0.252759244693845 0  2.517420860611968 -0.1524679547155687 0  -0.04776045819569434 -2.464949198504599 0  -0.2420369079104247 3.187693796852321 0  3.751304711039982 -0.1203080877045035 0  -5.397601941771943 -0.609026059866711 0  1.3125 1 0  1.9375 -1 0  -0.6946315101963667 -2.018229242739021 0  -0.6946315101963667 3.731770757260979 0  1 -3.8125 0  2.014364435550335 0.6166648446293641 0  -1 5.6875 0  -1 -5.6875 0  -2.653476149871182 -0.5942957192996303 0  3.096523850128818 -0.5942957192996303 0  1 1.9375 0  -3.8125 -1 0  0.586975531244212 -0.7975955463807081 0  -0.2946248980953088 -4.743710873809568 0  2.625453376770019 0.2814788818359375 0  -3.124546623229981 0.2814788818359375 0  -0.1204856417894853 5.631800603217465 0  5.253862011026742 0.6581468962876398 0  -0.65234375 2.108701557941197 0  0.65234375 3.641298442058803 0  -0.65234375 -3.641298442058803 0  -0.25 -5.744880569758637 0  -4.4375 -1 0  -0.3166212631734941 -2.713595940002554 0  0.6591479224207506 0.1324305912687024 0  0.8660781906552419 0.6468634238104103 0  -0.9887189158197679 0.6452930723873549 0  0.3149351927204296 -1.460971774996065 0  -0.3572852727880474 -0.009629022788047503 0  2.09375 -0.6866724363772454 0  0.6866724363772454 -3.65625 0  0.6866724363772454 2.09375 0  -3.65625 -0.6866724363772454 0  -3.5371337890625 0.65234375 0  -0.1389584113023952 1.944025352615082 0  -2.151744288472698 0.65234375 0  -0.1389584113023951 -3.805974647384918 0  0.1389584113023951 3.805974647384918 0  -2.578772109813904 0.1857224367977529 0  3.171227890186096 0.1857224367977529 0  3.360315647536819 0.65234375 0  0.1857224367977528 -1.921227890186096 0  0.65234375 -2.110315647536819 0  1.894016528727564 0.2415406141485869 0  -3.738232421875 0 0  0.2516875549238616 3.139069895099618 0  -1.913724396854074 0.2011142179916434 0  0.1669456568161915 0.7843410671359501 0  -2.5625 1 0  -1 -3.1875 0  -1 2.5625 0  0.1736601499778735 4.857955663330752 0  -0.1893536587212888 2.577300639071919 0  -0.1893536587212888 -3.172699360928081 0  3.852271904453858 0.206603749322895 0  -3.8125 1 0  -0.1250095034621793 -5.421707592768541 0  3.8125 -1 0  3.617304217264373 -0.6578427703661498 0  0.2630176195580202 -2.636558318495885 0  0.2674330357770522 1.399517071108871 0  0.631726413079416 1.339254523727593 0  4.700571879807737 0.2813704945051134 0  0.7143844363649634 -3.319538455208831 0  2.430461544791169 -0.7143844363649634 0  0.7143844363649634 2.430461544791169 0  -3.319538455208831 -0.7143844363649634 0  5.687045771608623 -0.6520598572553891 0  -5.687045771608623 0.6520598572553891 0  -1.15625 -0.7048248829733235 0  3.438284572973296 -0.01860298867862281 0  -0.03021088078697859 3.451572359862192 0  2.216682837011589 -0.02159585961918548 0  -2.191580885932936 -0.03126387444658879 0  0.1857410764408683 1.895679405349457 0  3.103473238297955 -0.253270943723272 0  -2.646526761702045 -0.253270943723272 0  -2.333137350671861 -0.6791984914172315 0  -1 5.0625 0  -0.6971235589909319 5.213002544375844 0  0.01618705363819947 2.225929180591695 0  0.01618705363819947 -3.524070819408305 0  0.5690054882403073 0.7951310720450595 0  -0.5764940424412852 -3.329579265180942 0  -0.5764940424412852 2.420420734819058 0  3.8125 1 0  -5.372163860234628 0.04365139563106807 0  5.164108319316826 -0.225040894204947 0  -5.361952437854323 0.6744012088984681 0  -5.0625 1 0  5.286835586913878 -0.6616705837083201 0  -5.692815197359722 0.1186699900166531 0  5.663425996156958 -0.07763197815533956 0  -0.9219866027132193 -0.1143045829323572 0  -1.394333629759332 -0.2233077430199216 0  0.09322478991596644 -0.9616596638655462 0  5.0625 -1 0  -0.14412109375 -1.92169189453125 0  -4.28125 -0.7212148987671345 0  0.2649796277366407 0.1735162902120744 0  -4.907855692236596 0.1868230509619793 0  -1.9375 1 0  1 5.0625 0  0.6915124486819284 -5.272938212550202 0  0.683483242673902 5.284948082526911 0  2.5625 -1 0  -1 -3.8125 0  -1 1.9375 0  5.0625 1 0  -1 -1.9375 0  1 5.6875 0  1 -5.6875 0  -1.9375 -1 0  -1 -2.5625 0  -1 3.1875 0  1 -3.1875 0  1 -2.5625 0  1 2.5625 0  1 3.1875 0  -5.0625 -1 0  -1 -1.3125 0  1.3125 -1 0  -1 1.3125 0  -1 3.8125 0  -1 4.4375 0  -4.4375 1 0  4.4375 -1 0  4.4375 1 0  -1.3125 1 0  1 4.4375 0  1 -4.4375 0  -1 -5.0625 0  -1 -4.4375 0  -3.1875 1 0  2.5625 1 0  1 -1.9375 0  1 -1.3125 0  5.6875 1 0  1 3.8125 0  3.1875 1 0  -3.1875 -1 0  1 -5.0625 0  1.35138038998199 0.6675097549271188 0  -0.465625 0.986328125 0  1.435958105992309 0.2563920171199723 0  1.915914614192913 -0.145782394639918 0  -0.8764440609469509 -0.5746869313612541 0  5.355194559946098 0.01566259380337612 0  -5.69333042954964 -0.5242868300459975 0  1.78125 -0.7320750794491524 0  0.7320750794491525 -3.96875 0  -0.3959075548864684 5.166422468926435 0  -4.770522389068053 -0.2123670725088856 0  -4.714160156249999 -0.69234375 0  -4.273484403713342 -0.278160994327167 0  0.9642590244517505 0.08196089404241463 0  0.3500261717645397 -4.727285205957206 0  0.6740868006020392 -4.765147848348443 0  0.6797550207247084 -1.089747806381148 0  -5.186479934354063 0.3046329157552757 0  -5.263288238215326 -0.3369092276308425 0  -2.433484016245305 0.5442571297016638 0  0.1707808983307866 -3.82363304980935 0  -0.1554012991031027 3.867535742674252 0  4.855508096805579 -0.2283975605264581 0  3.644517238097614 0.5646428152488787 0  0.05699603874439441 -0.6452791208413911 0  -0.3550018917972689 -0.5695324323732931 0  0.6
[...]
<PointData  Vectors="u"> 
<DataArray  type="Float64"  Name="u"  NumberOfComponents="3" format="ascii">0.0000000000000000e+00 0.0000000000000000e+00 0.0000000000000000e+00  0.0000000000000000e+00 0.0000000000000000e+00 0.0000000000000000e+00  0.0000000000000000e+00 0.0000000000000000e+00 0.0000000000000000e+00  0.0000000000000000e+00 0.0000000000000000e+00 0.0000000000000000e+00  0.0000000000000000e+00 0.0000000000000000e+00 0.0000000000000000e+00  0.0000000000000000e+00 0.0000000000000000e+00 0.0000000000000000e+00  0.0000000000000000e+00 0.0000000000000000e+00 0.0000000000000000e+00  0.0000000000000000e+00 0.0000000000000000e+00 0.0000000000000000e+00  0.0000000000000000e+00 0.0000000000000000e+00 0.0000000000000000e+00  0.0000000000000000e+00 0.0000000000000000e+00 0.0000000000000000e+00  0.0000000000000000e+00 0.0000000000000000e+00 0.0000000000000000e+00  0.0000000000000000e+00 0.0000000000000000e+00 0.0000000000000000e+00  0.0000000000000000e+00 0.0000000000000000e+00 0.0000000000000000e+00  0.0000000000000000e+00 0.0000000000000000e+00 0.0000000000000000e+00  0.0000000000000000e+00 0.0000000000000000e+00 0.0000000000000000e+00  0.0000000000000000e+00 0.0000000000000000e+00 0.0000000000000000e+00  0.0000000000000000e+00 0.0000000000000000e+00 0.0000000000000000e+00  0.0000000000000000e+00 0.0000000000000000e+00 0.0000000000000000e+00  0.0000000000000000e+00 0.0000000000000000e+00 0.0000000000000000e+00  0.0000000000000000e+00 0.0000000000000000e+00 0.0000000000000000e+00  0.0000000000000000e+00 0.0000000000000000e+00 0.0000000000000000e+00  0.0000000000000000e+00 0.0000000000000000e+00 0.0000000000000000e+00  0.0000000000000000e+00 0.0000000000000000e+00 0.0000000000000000e+00  0.0000000000000000e+00 0.0000000000000000e+00 0.0000000000000000e+00  0.0000000000000000e+00 0.0000000000000000e+00 0.0000000000000000e+00  0.0000000000000000e+00 0.0000000000000000e+00 0.0000000000000000e+00  0.0000000000000000e+00 0.0000000000000000e+00 0.0000000000000000e+00  0.0000000000000000e+00 0.0000000000000000e+00 0.0000000000000000e+00  0.0000000000000000e+00 0.0000000000000000e+00 0.0000000000000000e+00  0.0000000000000000e+00 0.0000000000000000e+00 0.0000000000000000e+00  0.0000000000000000e+00 0.0000000000000000e+00 0.0000000000000000e+00  0.0000000000000000e+00 0.0000000000000000e+00 0.0000000000000000e+00  0.0000000000000000e+00 0.0000000000000000e+00 0.0000000000000000e+00  0.0000000000000000e+00 0.0000000000000000e+00 0.0000000000000000e+00  0.0000000000000000e+00 0.0000000000000000e+00 0.0000000000000000e+00  0.0000000000000000e+00 0.0000000000000000e+00 0.0000000000000000e+00  -1.5106073424159532e-04 5.2885884728126900e-05 0.0000000000000000e+00  2.6935493497266105e-02 -7.3659289439452207e-06 0.0000000000000000e+00  2.5643105700231688e-02 6.2128306343380417e-05 0.0000000000000000e+00  2.6955028988586736e-02 6.4211411462508619e-07 0.0000000000000000e+00  2.6981389609839077e-02 2.2536319453376152e-05 0.0000000000000000e+00  6.5379900897517407e-06 2.6901933079732120e-02 0.0000000000000000e+00  -2.6874174560975225e-02 2.9178057641676016e-05 0.0000000000000000e+00  2.3632264803696596e-05 2.6896710014225063e-02 0.0000000000000000e+00  -2.5697234057066306e-02 8.3762597540795763e-05 0.0000000000000000e+00  7.5047557637819921e-06 -2.6898627693118418e-02 0.0000000000000000e+00  -2.7987798013080507e-05 -2.5518038541814721e-02 0.0000000000000000e+00  2.6681142537030031e-05 2.5503729203301909e-02 0.0000000000000000e+00  2.6061316691416133e-05 2.6904865374961645e-02 0.0000000000000000e+00  2.5369497879492846e-05 -2.6900659959151356e-02 0.0000000000000000e+00  3.7275536182716849e-05 -2.6940734307660669e-02 0.0000000000000000e+00  -2.6966882044693854e-02 -5.9884323001819444e-06 0.0000000000000000e+00  -2.6929397079673362e-02 -2.5830386490931996e-05 0.0000000000000000e+00  -3.0102169040149870e-05 2.6971096007107058e-02 0.0000000000000000e+00  2.6907225041665178e-02 -2.7194168845004399e-05 0.0000000000000000e+00  -4.1251016121188933e-05 -2.6751943540862921e-02 0.0000000000000000e+00  -2.6836169490937735e-02 -3.0617230167013651e-05 0.0000000000000000e+00  -1.7333181088212406e-02 -3.6723661620850327e-03 0.0000000000000000e+00  3.4138134227040032e-03 -1.6953704042805398e-02 0.0000000000000000e+00  1.6895062158953547e-02 3.6732535419335272e-03 0.0000000000000000e+00  3.6285492065710129e-03 1.6978100050377580e-02 0.0000000000000000e+00  0.0000000000000000e+00 0.0000000000000000e+00 0.0000000000000000e+00  0.0000000000000000e+00 0.0000000000000000e+00 0.0000000000000000e+00  0.0000000000000000e+00 0.0000000000000000e+00 0.0000000000000000e+00  0.0000000000000000e+00 0.0000000000000000e+00 0.0000000000000000e+00  -1.1967805359344285e-02 9.9868055282260181e-03 0.0000000000000000e+00  0.0000000000000000e+00 0.0000000000000000e+00 0.0000000000000000e+00  0.0000000000000000e+00 0.0000000000000000e+00 0.0000000000000000e+00  0.0000000000000000e+00 0.0000000000000000e+00 0.0000000000000000e+00  4.8206412485605506e-05 -2.5681390086703160e-02 0.0000000000000000e+00  0.0000000000000000e+00 0.0000000000000000e+00 0.0000000000000000e+00  -2.6853171035954543e-02 -2.9038802137062891e-06 0.0000000000000000e+00  -2.6743404414292890e-02 4.2461108803298672e-05 0.0000000000000000e+00  -2.6668373490214854e-02 -4.6367607330134627e-06 0.0000000000000000e+00  0.0000000000000000e+00 0.0000000000000000e+00 0.0000000000000000e+00  0.0000000000000000e+00 0.0000000000000000e+00 0.0000000000000000e+00  1.2802702855470201e-05 2.6836975703505274e-02 0.0000000000000000e+00  -8.4795056817489987e-06 2.6843862288770646e-02 0.0000000000000000e+00  0.0000000000000000e+00 0.0000000000000000e+00 0.0000000000000000e+00  0.0000000000000000e+00 0.0000000000000000e+00 0.0000000000000000e+00  1.3121133036114569e-04 2.6604429555986589e-02 0.0000000000000000e+00  -2.1747501066173255e-04 2.6747299306064055e-02 0.0000000000000000e+00  0.0000000000000000e+00 0.0000000000000000e+00 0.0000000000000000e+00  0.0000000000000000e+00 0.0000000000000000e+00 0.0000000000000000e+00  4.1556025815476553e-05 -2.6744454588352274e-02 0.0000000000000000e+00  9.2807477979147511e-06 -2.6865835335513771e-02 0.0000000000000000e+00  0.0000000000000000e+00 0.0000000000000000e+00 0.0000000000000000e+00  -1.2324937964942073e-04 -2.6792225484782252e-02 0.0000000000000000e+00  2.6342866370816234e-04 -2.6701634453537459e-02 0.0000000000000000e+00  0.0000000000000000e+00 0.0000000000000000e+00 0.0000000000000000e+00  0.0000000000000000e+00 0.0000000000000000e+00 0.0000000000000000e+00  0.0000000000000000e+00 0.0000000000000000e+00 0.0000000000000000e+00  0.0000000000000000e+00 0.0000000000000000e+00 0.0000000000000000e+00  0.0000000000000000e+00 0.0000000000000000e+00 0.0000000000000000e+00  0.0000000000000000e+00 0.0000000000000000e+00 0.0000000000000000e+00  -2.6532705065897451e-02 2.0593690974114913e-04 0.0000000000000000e+00  -2.6728760968716455e-02 -1.8578817927960030e-04 0.0000000000000000e+00  0.0000000000000000e+00 0.0000000000000000e+00 0.0000000000000000e+00  0.0000000000000000e+00 0.0000000000000000e+00 0.0000000000000000e+00  0.0000000000000000e+00 0.0000000000000000e+00 0.0000000000000000e+00  0.0000000000000000e+00 0.0000000000000000e+00 0.0000000000000000e+00  0.0000000000000000e+00 0.0000000000000000e+00 0.0000000000000000e+00  0.0000000000000000e+00 0.0000000000000000e+00 0.0000000000000000e+00  2.6548515297670248e-02 2.3160844953120960e-04 0.0000000000000000e+00  2.6630779112713280e-02 -1.5783776947906646e-04 0.0000000000000000e+00  0.0000000000000000e+00 0.0000000000000000e+00 0.0000000000000000e+00  0.0000000000000000e+00 0.0000000000000000e+00 0.0000000000000000e+00  0.0000000000000000e+00 0.0000000000000000e+00 0.0000000000000000e+00  2.6580638989695562e-02 4.4271563051084493e-05 0.0000000000000000e+00  2.6889275478796871e-02 1.2676286787689950e-05 0.0000000000000000e+00  0.0000000000000000e+00 0.0000000000000000e+00 0.0000000000000000e+00  0.0000000000000000e+00 0.0000000000000000e+00 0.0000000000000000e+00  -4.9850925758356925e-03 2.2366109278679869e-02 0.0000000000000000e+00  2.3075299601624823e-02 -5.0405469769710786e-03 0.0000000000000000e+00  -4.6360090714359283e-03 -2.3354554401959909e-02 0.0000000000000000e+00  -2.3603657713627251e-02 4.4596039464878294e-03 0.0000000000000000e+00  3.6288900742464179e-05 -2.5521252988861116e-02 0.0000000000000000e+00  -5.8783080013724487e-06 -2.6841060262854131e-02 0.0000000000000000e+00  -2.6728059554523800e-02 -3.0452219536129607e-05 0.0000000000000000e+00  -2.4962999516472755e-07 2.6798047505758853e-02 0.0000000000000000e+00  4.7799028262119771e-05 2.6665719471129314e-02 0.0000000000000000e+00  1.1297680770855781e-02 -7.0737697251234567e-03 0.0000000000000000e+00  2.5683524856031321e-02 3.6785014199794031e-03 0.0000000000000000e+00  3.3328656658684436e-05 2.5651605046799510e-02 0.0000000000000000e+00  -6.6633306897549817e-03 -1.1181260054670151e-02 0.0000000000000000e+00  -2.6586789483726028e-02 1.7344045376551456e-05 0.0000000000000000e+00  -2.6860218483303163e-02 9.8347726517959029e-06 0.0000000000000000e+00  4.7062219126458472e-05 -2.6605500257391571e-02 0.0000000000000000e+00  2.6908756828775405e-02 9.6925578879608458e-06 0.0000000000000000e+00  2.6673334496638345e-02 3.4138853754727279e-05 0.0000000000000000e+00  2.6828964993407270e-02 5.6598512904394686e-06 0.0000000000000000e+00  2.5345215644322069e-02 -1.0721646678030763e-05 0.0000000000000000e+00  3.2193140474400532e-05 2.6621699030658454e-02 0.0000000000000000e+00  -3.2416382571899266e-05 2.6844542103716267e-02 0.0000000000000000e+00  -1.4233877564622674e-05 -2.6743027628849076e-02 0.0000000000000000e+00  4.1582283978964666e-03 2.6510324919631626e-02 0.0000000000000000e+00  -2.5960859551233031e-02 -3.8860353142072834e-03 0.0000000000000000e+00  3.6345914312369892e-03 -2.5724726054138215e-02 0.0000000000000000e+00  1.9707117000270942e-05 2.6842750801323190e-02 0.0000000000000000e+00  -1.1890894602279996e-05 -2.6960679408494621e-02 0.0000000000000000e+00  -2.6884054311007332e-02 -5.1239666443933637e-05 0.0000000000000000e+00  2.5470236980391289e-02 1.4370490486129147e-05 0.0000000000000000e+00  -2.6700239769996841e-02 -1.3442401572001522e-05 0.0000000000000000e+00  2.6751859656342865e-02 -1.2687681995750906e-05 0.0000000000000000e+00  -2.6862383672545759e-02 -7.2582990935901915e-05 0.0000000000000000e+00  7.8016462122397538e-06 -2.6698602100796266e-02 0.0000000000000000e+00  3.4782492729169970e-06 2.6679391422826770e-02 0.0000000000000000e+00  2.5896985490934134e-02 7.3334064019975749e-05 0.0000000000000000e+00  2.6643847880670934e-02 -1.4905681965392782e-03 0.0000000000000000e+00  2.6786535183826548e-02 -6.9384611584262152e-08 0.0000000000000000e+00  1.3456381747054074e-05 2.6744079216881617e-02 0.0000000000000000e+00  -6.3772611382961915e-05 2.6642262371256071e-02 0.0000000000000000e+00  -2.6741420020176983e-02 -9.7472294495914357e-06 0.0000000000000000e+00  -2.6684564931007050e-02 1.5125661987839215e-03 0.0000000000000000e+00  -9.8313368620552921e-04 -2.6653544303049566e-02 0.0000000000000000e+00  9.6632280703005455e-06 -2.6647010458704545e-02 0.0000000000000000e+00  -1.0912260743962219e-03 2.6851112344407780e-02 0.0000000000000000e+00  -2.6799723279218403e-02 6.9678280113256381e-05 0.0000000000000000e+00  4.0547535346479430e-05 -2.6712826766520439e-02 0.0000000000000000e+00  2.6655489145994631e-02 3.3210641530144747e-06 0.0000000000000000e+00  -2.5697176307530087e-02 -8.4299715401366402e-06 0.0000000000000000e+00  2.6855698846123256e-02 -3.5696315214749851e-06 0.0000000000000000e+00  2.5583572988605412e-02 -9.5837321592822221e-05 0.0000000000000000e+00  -2.5606161943611191e-02 -1.9976490517387941e-04 0.0000000000000000e+00  2.9409683305297519e-05 2.6692393594880553e-02 0.0000000000000000e+00  4.3463810417729690e-05 -2.6664605380143414e-02 0.0000000000000000e+00  2.5557967926635065e-02 7.8631497163203956e-04 0.0000000000000000e+00  8.6403808059934515e-04 2.6437606799010756e-02 0.0000000000000000e+00  3.3902620637434547e-05 2.6910550428480125e-02 0.0000000000000000e+00  2.5797687776173316e-02 6.0346455401204509e-06 0.0000000000000000e+00  -2.6951014161922651e-02 -6.5549632094837437e-06 0.0000000000000000e+00  -2.3381265988153259e-02 5.1739973911671707e-05 0.0000000000000000e+00  2.9147681968588362e-05 2.2606626977205568e-02 0.0000000000000000e+00  -4.9197988534895654e-06 -2.6960271633385630e-02 0.0000000000000000e+00  -8.7506271193834586e-05 -2.3036426323092121e-02 0.0000000000000000e+00  2.6951029274021404e-02 -1.4756033254541606e-05 0.0000000000000000e+00  2.2768047383712742e-02 4.3103419290672553e-05 0.0000000000000000e+00  1.9070642245712326e-06 2.3493688156488907e-02 0.0000000000000000e+00  -2.6166130908835197e-02 1.6474459633977742e-04 0.0000000000000000e+00  -5.2299366437178251e-05 -2.3468901839935771e-02 0.0000000000000000e+00  9.6401443236384459e-05 2.3527882996276520e-02 0.0000000000000000e+00  -1.6711664059395789e-05 -2.3289800861581857e-02 0.0000000000000000e+00  7.3944561963030734e-03 7.1903939491216682e-03 0.0000000000000000e+00  1.3957971010913249e-02 1.6246427905955329e-02 0.0000000000000000e+00  -1.8496212056734263e-03 9.2818484313403424e-03 0.0000000000000000e+00  1.0238734623426533e-03 -2.6449073594498950e-02 0.0000000000000000e+00  -2.6396017849944962e-02 -9.1494164667716630e-04 0.0000000000000000e+00  -1.4311653587367913e-05 2.6643162201720628e-02 0.0000000000000000e+00  7.7307794969764087e-06 -2.6693693629162681e-02 0.0000000000000000e+00  0.0000000000000000e+00 0.0000000000000000e+00 0.0000000000000000e+00  0.0000000000000000e+00 0.0000000000000000e+00 0.0000000000000000e+00  1.2168212620855569e-03 -2.2804077053577530e-02 0.0000000000000000e+00  -2.2910524172354129e-02 -7.3867263830202929e-04 0.0000000000000000e+00  -8.6595496991726337e-03 -2.2245658970145156e-03 0.0000000000000000e+00  1.4356697512535533e-02 -1.8504544388236465e-02 0.0000000000000000e+00  -2.2897141482116790e-02 -1.1257298278919541e-02 0.0000000000000000e+00  2.2867137926630324e-02 6.6254800788683637e-04 0.0000000000000000e+00  1.5762055880221525e-04 2.2579150596021193e-02 0.0000000000000000e+00  2.2868011403356075e-03 -8.5769110042777461e-03 0.0000000000000000e+00  0.0000000000000000e+00 0.0000000000000000e+00 0.0000000000000000e+00  2.3759250618492093e-02 -3.8962601018735661e-04 0.0000000000000000e+00  -2.8083306168064336e-03 -2.6666270246937053e-02 0.0000000000000000e+00  0.0000000000000000e+00 0.0000000000000000e+00 0.0000000000000000e+00  9.9390677390148025e-05 -2.3607824159032741e-02 0.0000000000000000e+00  0.0000000000000000e+00 0.0000000000000000e+00 0.0000000000000000e+00  1.2881599883528047e-04 2.4098444838686308e-02 0.0000000000000000e+00  -2.4186601678954683e-02 -1.9852581872545219e-04 0.0000000000000000e+00  0.0000000000000000e+00 0.0000000000000000e+00 0.0000000000000000e+00  0.0000000000000000e+00 0.0000000000000000e+00 0.0000000000000000e+00  0.0000000000000000e+00 0.0000000000000000e+00 0.0000000000000000e+00  1.5795368657821413e-05 -2.6895503800738740e-02 0.0000000000000000e+00  -4.7198546527328044e-05 2.6841565738435689e-02 0.0000000000000000e+00  2.6933270613136554e-02 6.5904375762557179e-06 0.0000000000000000e+00  2.6514884964082525e-02 -4.1229405398859225e-04 0.0000000000000000e+00  -2.6826887717227726e-02 -2.4739732398681034e-05 0.0000000000000000e+00  1.9535696293835407e-05 -2.6849691784060156e-02 0.0000000000000000e+00  3.1003306016872047e-05 2.6792030271062754e-02 0.0000000000000000e+00  -2.6955743563789068e-02 5.0435540208714571e-06 0.0000000000000000e+00  2.3078347743630281e-02 9.6042152428839809e-07 0.0000000000000000e+00  0.0000000000000000e+00 0.0000000000000000e+00 0.0000000000000000e+00  0.0000000000000000e+00 0.0000000000000000e+00 0.0000000000000000e+00  5.4406994663130058e-04 -2.4174833126929217e-02 0.0000000000000000e+00  -1.2641536136497286e-04 2.4159398695262489e-02 0.0000000000000000e+00  0.0000000000000000e+00 0.0000000000000000e+00 0.0000000000000000e+00  -2.5928861513422698e-02 3.5178941842481653e-04 0.0000000000000000e+00  0.0000000000000000e+00 0.0000000000000000e+00 0.0000000000000000e+00  0.0000000000000000e+00 0.0000000000000000e+00 0.0000000000000000e+00  2.6015520678563164e-02 7.5493228749814775e-05 0.0000000000000000e+00  -2.5825151993539078e-02 -3.2525001749391401e-05 0.0000000000000000e+00  0.0000000000000000e+00 0.0000000000000000e+00 0.0000000000000000e+00  0.0000000000000000e+00 0.0000000000000000e+00 0.0000000000000000e+00  -1.2524446472384291e-02 -1.9550676417532588e-02 0.0000000000000000e+00  -2.3574963616137460e-05 -2.6654627422688926e-02 0.0000000000000000e+00  -2.6702398836383933e-02 8.3729820369577281e-05 0.0000000000000000e+00  2.6822333195838863e-02 1.2943094655386638e-06 0.0000000000000000e+00  2.2463713103226928e-05 2.6930218514728786e-02 0.0000000000000000e+00  -2.4153914888195866e-02 -1.2174570196998596e-04 0.0000000000000000e+00  1.5516287302878552e-04 2.3872144565532785e-02 0.0000000000000000e+00  -1.9141983620177155e-05 2.3709528525015899e-02 0.0000000000000000e+00  7.7398983239561648e-05 -2.3741227498074498e-02 0.0000000000000000e+00  2.8967135784515859e-05 -2.6711873791281118e-02 0.0000000000000000e+00  0.0000000000000000e+00 0.0000000000000000e+00 0.0000000000000000e+00  4.2567636120219417e-06 -2.6657365744755305e-02 0.0000000000000000e+00  -1.3807414438431587e-02 2.8053077376341017e-03 0.0000000000000000e+00  -2.0833549316602057e-02 1.4014488241216908e-02 0.0000000000000000e+00  2.4129257013951560e-02 1.1283737653943058e-02 0.0000000000000000e+00  -1.9355286284019804e-03 -2.5286859173203693e-02 0.0000000000000000e+00  7.4704039896761158e-03 1.0894580227312798e-04 0.0000000000000000e+00  -2.4393761174326407e-02 -2.4636988009443751e-04 0.0000000000000000e+00  8.6629305531886104e-06 -2.4379940860680870e-02 0.0000000000000000e+00  -2.5983429467265343e-04 2.4375761989494420e-02 0.0000000000000000e+00  2.4125293698033443e-02 3.3511984019459081e-05 0.0000000000000000e+00  2.4130962202930640e-02 7.3712603275700716e-06 0.0000000000000000e+00  2.1963103606048668e-04 2.6517740663342504e-02 0.0000000000000000e+00  2.4223339813774412e-02 4.3443994494501482e-04 0.0000000000000000e+00  3.6288934296450565e-05 -2.6912079721517549e-02 0.0000000000000000e+00  2.4082269496153015e-05 2.6921961695938870e-02 0.0000000000000000e+00  2.6785984923418788e-02 3.0044722396054416e-05 0.0000000000000000e+00  -2.6903248032589814e-02 5.0897214283386402e-05 0.0000000000000000e+00  -2.3556441083274499e-02 1.9521927763888397e-04 0.0000000000000000e+00  -2.1219642912100620e-04 -2.6482737012332756e-02 0.0000000000000000e+00  -1.9882368271148664e-04 -2.3364625566857415e-02 0.0000000000000000e+00  -2.6471375585799515e-02 5.2500646005277090e-04 0.0000000000000000e+00  2.6943169178245241e-02 2.1116102565241110e-05 0.0000000000000000e+00  8.3100382065072448e-06 2.6864485702570412e-02 0.0000000000000000e+00  2.6481734485360214e-02 4.3425524360976564e-04 0.0000000000000000e+00  -3.1261990073741201e-03 1.6541098095467169e-02 0.0000000000000000e+00  0.0000000000000000e+00 0.0000000000000000e+00 0.0000000000000000e+00  0.0000000000000000e+00 0.0000000000000000e+00 0.0000000000000000e+00  0.0000000000000000e+00 0.0000000000000000e+00 0.0000000000000000e+00  -9.2223820423068892e-06 2.6941306423386862e-02 0.0000000000000000e+00  2.4157164404231795e-05 2.6811830866335481e-02 0.0000000000000000e+00  3.0564374310763131e-05 -2.6849401986003073e-02 0.0000000000000000e+00  -2.6733664903448591e-02 -8.4666037106070334e-06 0.0000000000000000e+00  0.0000000000000000e+00 0.0000000000000000e+00 0.0000000000000000e+00  -8.1521114293083015e-06 -2.6906729847181884e-02 0.0000000000000000e+00  0.0000000000000000e+00 0.0000000000000000e+00 0.0000000000000000e+00  -2.3467587444203047e-02 -2.9009825749904519e-05 0.0000000000000000e+00  -4.7339771744568331e-05 -2.6828835165250770e-02 0.0000000000000000e+00  -2.1445031266780247e-03 2.4699531007001441e-02 0.0000000000000000e+00  -3.5704422516246578e-03 2.6186626740208840e-02 0.0000000000000000e+00  -2.6923984861641596e-02 4.0799971503353547e-06 0.