<?xml version="1.0"?>
<VTKFile type="UnstructuredGrid"  version="0.1"  >
<UnstructuredGrid>
<Piece  NumberOfPoints="778" NumberOfCells="1401">
<Points>
<DataArray  type="Float64"  NumberOfComponents="3"  format="ascii">1 -1 0  6 -1 0  6 1 0  1 1 0  1 6 0  -1 6 0  -1 1 0  -6 1 0  -6 -1 0  -1 -1 0  -1 -6 0  1 -6 0  1 3.5 0  -1 3.5 0  -1 -3.5 0  1 -3.5 0  3.5 -1 0  3.5 1 0  -3.5 -1 0  -3.5 1 0  -1 -2.25 0  1 -2.25 0  2.25 -1 0  2.25 1 0  -1 2.25 0  1 2.25 0  -1 4.75 0  1 4.75 0  -4.75 -1 0  -4.75 1 0  -2.25 1 0  -2.25 -1 0  1 -4.75 0  -1 -4.75 0  4.75 1 0  4.75 -1 0  0 0 0  -2.875 0 0  -1.625 0 0  -4.125 0 0  -6 0 0  0 2.875 0  2.875 0 0  0 6 0  1.625 0 0  0 -2.875 0  0 -1.625 0  0 1.625 0  0 4.125 0  0 -6 0  0 -4.125 0  4.125 0 0  6 0 0  -0.109375 5.0625 0  -5.0625 -0.109375 0  -0.109375 -5.0625 0  5.0625 0.109375 0  0.8125 -0.1875 0  -0.1875 -0.8125 0  -0.8125 0.1875 0  -0.1875 0.8125 0  1 5.375 0  -5.375 1 0  1 -5.375 0  5.375 -1 0  0.53515625 0.46484375 0  -5.375 -1 0  -1 5.375 0  -1 -5.375 0  -0.5 -6 0  5.375 1 0  6 0.5 0  3.5 0.3046875 0  3.43125 -0.34765625 0  2.875 -1 0  4.125 1 0  0.3046875 3.5 0  -0.34765625 3.56875 0  -1 4.125 0  1 4.125 0  -0.3046875 2.25 0  0.34765625 2.18125 0  1 1.625 0  -1 -1.625 0  -0.3046875 -3.5 0  0.34765625 -3.56875 0  1 -4.125 0  0.3046875 -2.25 0  -0.34765625 -2.18125 0  -1 -4.125 0  -1 -2.875 0  1 -2.875 0  1 -1.625 0  1.625 -1 0  1.625 1 0  2.25 0.3046875 0  2.18125 -0.34765625 0  4.125 -1 0  2.875 1 0  1 2.875 0  -1 1.625 0  -1 2.875 0  -4.125 -1 0  -2.25 0.3046875 0  -2.31875 -0.34765625 0  -2.875 -1 0  -1.625 1 0  -4.125 1 0  -3.5 0.3046875 0  -3.56875 -0.34765625 0  -1.625 -1 0  -2.875 1 0  0.380626321794301 1.06853329530276 0  -1.110819327731092 -0.3739495798319328 0  0.3739495798319328 -1.110819327731092 0  1.151210293219304 0.3991939332620648 0  -0.5 -4.4375 0  0.5 -4.4375 0  5.481553398058253 -0.3712833737864077 0  0.5 4.4375 0  0.5 6 0  -0.522503783594538 -0.3265648647465863 0  -1.3125 0.5 0  -0.5 6 0  0.3265648647465863 -0.522503783594538 0  4.4375 0.5 0  4.4375 -0.5 0  0.5 -6 0  -6 -0.5 0  -5.481553398058253 0.3712833737864077 0  -4.55 -0.4296875 0  -4.4375 0.5 0  -0.5 4.4375 0  0.4792930825242718 5.026881067961165 0  0.4792930825242718 -5.026881067961165 0  -0.5 1.3125 0  1.3125 -0.5 0  -0.5 -1.3125 0  0.25 5.518539952962044 0  0.2125133872612723 -5.500076563152851 0  4.969341874373811 -0.5152550785163683 0  -4.969341874373811 0.5152550785163683 0  3.927189744345589 -0.4712876597840069 0  -5.554036458333333 -0.25 0  5.554036458333333 0.25 0  -0.4690710616438356 -5.462756849315069 0  -0.4690710616438356 5.462756849315069 0  -6 0.5 0  -1.59556436210848 -0.5 0  -3.058421751829955 -0.5 0  -0.5 2.731982421875 0  0.5 2.691578248170045 0  2.691578248170045 -0.5 0  1.641211254104555 0.5 0  0.5 -1.768017578125 0  0.5 -3.058421751829955 0  0.5 1.699267578125 0  3.018017578125 0.5 0  -0.5 -3.018017578125 0  -2.731982421875 0.5 0  6 -0.5 0  -4.050017120925308 -0.5006099332648871 0  -3.940668202764977 0.5371363767281105 0  3.940668202764977 0.5371363767281105 0  0.4517449476047904 3.958458083832335 0  -0.4517449476047904 -3.958458083832335 0  -1.809331797235023 0.5371363767281105 0  -0.4517449476047904 1.791541916167665 0  -0.0546875 4.59375 0  -5.006445312499999 -0.58984375 0  4.605643203883496 -0.04725424757281554 0  4.90625 0.5546875 0  -0.5546875 4.90625 0  0.04725424757281554 -4.605643203883496 0  -0.586116118210531 -4.995821561900013 0  -4.603710222472543 0.04846236095466061 0  -3.1875 0.65234375 0  0.6163907621110913 3.147502300973589 0  2.5625 0.65234375 0  0.6163907621110913 -2.602497699026411 0  -0.637456713551384 3.189259902731882 0  -0.637456713551384 -2.560740097268118 0  -0.34765625 0.34765625 0  -0.639453125 0.708203125 0  0.089630126953125 0.437286376953125 0  -0.4238281249999999 -1.746875 0  1.746875 -0.4238281249999999 0  -0.4238281249999999 4.003125 0  0.4238281249999999 -4.003125 0  -2.5625 -1 0  3.1875 -1 0  -0.09375 -1.21875 0  1.21875 -0.09375 0  0.4020305405760241 -0.1120343241705621 0  -0.6280191027904287 -0.7577505545748082 0  0.90625 -0.59375 0  -1.205500904741459 0.03633725387965409 0  -0.02129048848213058 1.202028574265107 0  -0.1120343241705621 -0.4020305405760241 0  1 1.3125 0  -2.003587563743074 -0.6442361556699288 0  0.6640077663259718 -1.395873598614549 0  5.6875 -1 0  0.6308138580859101 -5.592151086468728 0  -5.6875 -1 0  0.6568032075915271 5.612942566073222 0  5.616530031741774 0.6612875396772174 0  -5.6875 1 0  1.9375 1 0  -1.3125 -1 0  0.1524679547155687 -3.232579139388032 0  0.1524679547155687 2.517420860611968 0  -3.232579139388032 -0.1524679547155687 0  -1.932320553757026 -0.252759244693845 0  2.517420860611968 -0.1524679547155687 0  -0.04776045819569434 -2.464949198504599 0  -0.2420369079104247 3.187693796852321 0  3.751304711039982 -0.1203080877045035 0  -5.397601941771943 -0.609026059866711 0  1.3125 1 0  1.9375 -1 0  -0.6946315101963667 -2.018229242739021 0  -0.6946315101963667 3.731770757260979 0  1 -3.8125 0  2.014364435550335 0.6166648446293641 0  -1 5.6875 0  -1 -5.6875 0  -2.653476149871182 -0.5942957192996303 0  3.096523850128818 -0.5942957192996303 0  1 1.9375 0  -3.8125 -1 0  0.586975531244212 -0.7975955463807081 0  -0.2946248980953088 -4.743710873809568 0  2.625453376770019 0.2814788818359375 0  -3.124546623229981 0.2814788818359375 0  -0.1204856417894853 5.631800603217465 0  5.253862011026742 0.6581468962876398 0  -0.65234375 2.108701557941197 0  0.65234375 3.641298442058803 0  -0.65234375 -3.641298442058803 0  -0.25 -5.744880569758637 0  -4.4375 -1 0  -0.3166212631734941 -2.713595940002554 0  0.6591479224207506 0.1324305912687024 0  0.8660781906552419 0.6468634238104103 0  -0.9887189158197679 0.6452930723873549 0  0.3149351927204296 -1.460971774996065 0  -0.3572852727880474 -0.009629022788047503 0  2.09375 -0.6866724363772454 0  0.6866724363772454 -3.65625 0  0.6866724363772454 2.09375 0  -3.65625 -0.6866724363772454 0  -3.5371337890625 0.65234375 0  -0.1389584113023952 1.944025352615082 0  -2.151744288472698 0.65234375 0  -0.1389584113023951 -3.805974647384918 0  0.1389584113023951 3.805974647384918 0  -2.578772109813904 0.1857224367977529 0  3.171227890186096 0.1857224367977529 0  3.360315647536819 0.65234375 0  0.1857224367977528 -1.921227890186096 0  0.65234375 -2.110315647536819 0  1.894016528727564 0.2415406141485869 0  -3.738232421875 0 0  0.2516875549238616 3.139069895099618 0  -1.913724396854074 0.2011142179916434 0  0.1669456568161915 0.7843410671359501 0  -2.5625 1 0  -1 -3.1875 0  -1 2.5625 0  0.1736601499778735 4.857955663330752 0  -0.1893536587212888 2.577300639071919 0  -0.1893536587212888 -3.172699360928081 0  3.852271904453858 0.206603749322895 0  -3.8125 1 0  -0.1250095034621793 -5.421707592768541 0  3.8125 -1 0  3.617304217264373 -0.6578427703661498 0  0.2630176195580202 -2.636558318495885 0  0.2674330357770522 1.399517071108871 0  0.631726413079416 1.339254523727593 0  4.700571879807737 0.2813704945051134 0  0.7143844363649634 -3.319538455208831 0  2.430461544791169 -0.7143844363649634 0  0.7143844363649634 2.430461544791169 0  -3.319538455208831 -0.7143844363649634 0  5.687045771608623 -0.6520598572553891 0  -5.687045771608623 0.6520598572553891 0  -1.15625 -0.7048248829733235 0  3.438284572973296 -0.01860298867862281 0  -0.03021088078697859 3.451572359862192 0  2.216682837011589 -0.02159585961918548 0  -2.191580885932936 -0.03126387444658879 0  0.1857410764408683 1.895679405349457 0  3.103473238297955 -0.253270943723272 0  -2.646526761702045 -0.253270943723272 0  -2.333137350671861 -0.6791984914172315 0  -1 5.0625 0  -0.6971235589909319 5.213002544375844 0  0.01618705363819947 2.225929180591695 0  0.01618705363819947 -3.524070819408305 0  0.5690054882403073 0.7951310720450595 0  -0.5764940424412852 -3.329579265180942 0  -0.5764940424412852 2.420420734819058 0  3.8125 1 0  -5.372163860234628 0.04365139563106807 0  5.164108319316826 -0.225040894204947 0  -5.361952437854323 0.6744012088984681 0  -5.0625 1 0  5.286835586913878 -0.6616705837083201 0  -5.692815197359722 0.1186699900166531 0  5.663425996156958 -0.07763197815533956 0  -0.9219866027132193 -0.1143045829323572 0  -1.394333629759332 -0.2233077430199216 0  0.09322478991596644 -0.9616596638655462 0  5.0625 -1 0  -0.14412109375 -1.92169189453125 0  -4.28125 -0.7212148987671345 0  0.2649796277366407 0.1735162902120744 0  -4.907855692236596 0.1868230509619793 0  -1.9375 1 0  1 5.0625 0  0.6915124486819284 -5.272938212550202 0  0.683483242673902 5.284948082526911 0  2.5625 -1 0  -1 -3.8125 0  -1 1.9375 0  5.0625 1 0  -1 -1.9375 0  1 5.6875 0  1 -5.6875 0  -1.9375 -1 0  -1 -2.5625 0  -1 3.1875 0  1 -3.1875 0  1 -2.5625 0  1 2.5625 0  1 3.1875 0  -5.0625 -1 0  -1 -1.3125 0  1.3125 -1 0  -1 1.3125 0  -1 3.8125 0  -1 4.4375 0  -4.4375 1 0  4.4375 -1 0  4.4375 1 0  -1.3125 1 0  1 4.4375 0  1 -4.4375 0  -1 -5.0625 0  -1 -4.4375 0  -3.1875 1 0  2.5625 1 0  1 -1.9375 0  1 -1.3125 0  5.6875 1 0  1 3.8125 0  3.1875 1 0  -3.1875 -1 0  1 -5.0625 0  1.35138038998199 0.6675097549271188 0  -0.465625 0.986328125 0  1.435958105992309 0.2563920171199723 0  1.915914614192913 -0.145782394639918 0  -0.8764440609469509 -0.5746869313612541 0  5.355194559946098 0.01566259380337612 0  -5.69333042954964 -0.5242868300459975 0  1.78125 -0.7320750794491524 0  0.7320750794491525 -3.96875 0  -0.3959075548864684 5.166422468926435 0  -4.770522389068053 -0.2123670725088856 0  -4.714160156249999 -0.69234375 0  -4.273484403713342 -0.278160994327167 0  0.9642590244517505 0.08196089404241463 0  0.3500261717645397 -4.727285205957206 0  0.6740868006020392 -4.765147848348443 0  0.6797550207247084 -1.089747806381148 0  -5.186479934354063 0.3046329157552757 0  -5.263288238215326 -0.3369092276308425 0  -2.433484016245305 0.5442571297016638 0  0.1707808983307866 -3.82363304980935 0  -0.1554012991031027 3.867535742674252 0  4.855508096805579 -0.2283975605264581 0  3.644517238097614 0.5646428152488787 0  0.05699603874439441 -0.6452791208413911 0  -0.3550018917972689 -0.5695324323732931 0  0.6
[...]
<PointData  Vectors="u"> 
<DataArray  type="Float64"  Name="u"  NumberOfComponents="3" format="ascii">0.0000000000000000e+00 0.0000000000000000e+00 0.0000000000000000e+00  0.0000000000000000e+00 0.0000000000000000e+00 0.0000000000000000e+00  0.0000000000000000e+00 0.0000000000000000e+00 0.0000000000000000e+00  0.0000000000000000e+00 0.0000000000000000e+00 0.0000000000000000e+00  0.0000000000000000e+00 0.0000000000000000e+00 0.0000000000000000e+00  0.0000000000000000e+00 0.0000000000000000e+00 0.0000000000000000e+00  0.0000000000000000e+00 0.0000000000000000e+00 0.0000000000000000e+00  0.0000000000000000e+00 0.0000000000000000e+00 0.0000000000000000e+00  0.0000000000000000e+00 0.0000000000000000e+00 0.0000000000000000e+00  0.0000000000000000e+00 0.0000000000000000e+00 0.0000000000000000e+00  0.0000000000000000e+00 0.0000000000000000e+00 0.0000000000000000e+00  0.0000000000000000e+00 0.0000000000000000e+00 0.0000000000000000e+00  0.0000000000000000e+00 0.0000000000000000e+00 0.0000000000000000e+00  0.0000000000000000e+00 0.0000000000000000e+00 0.0000000000000000e+00  0.0000000000000000e+00 0.0000000000000000e+00 0.0000000000000000e+00  0.0000000000000000e+00 0.0000000000000000e+00 0.0000000000000000e+00  0.0000000000000000e+00 0.0000000000000000e+00 0.0000000000000000e+00  0.0000000000000000e+00 0.0000000000000000e+00 0.0000000000000000e+00  0.0000000000000000e+00 0.0000000000000000e+00 0.0000000000000000e+00  0.0000000000000000e+00 0.0000000000000000e+00 0.0000000000000000e+00  0.0000000000000000e+00 0.0000000000000000e+00 0.0000000000000000e+00  0.0000000000000000e+00 0.0000000000000000e+00 0.0000000000000000e+00  0.0000000000000000e+00 0.0000000000000000e+00 0.0000000000000000e+00  0.0000000000000000e+00 0.0000000000000000e+00 0.0000000000000000e+00  0.0000000000000000e+00 0.0000000000000000e+00 0.0000000000000000e+00  0.0000000000000000e+00 0.0000000000000000e+00 0.0000000000000000e+00  0.0000000000000000e+00 0.0000000000000000e+00 0.0000000000000000e+00  0.0000000000000000e+00 0.0000000000000000e+00 0.0000000000000000e+00  0.0000000000000000e+00 0.0000000000000000e+00 0.0000000000000000e+00  0.0000000000000000e+00 0.0000000000000000e+00 0.0000000000000000e+00  0.0000000000000000e+00 0.0000000000000000e+00 0.0000000000000000e+00  0.0000000000000000e+00 0.0000000000000000e+00 0.0000000000000000e+00  0.0000000000000000e+00 0.0000000000000000e+00 0.0000000000000000e+00  0.0000000000000000e+00 0.0000000000000000e+00 0.0000000000000000e+00  0.0000000000000000e+00 0.0000000000000000e+00 0.0000000000000000e+00  0.0000000000000000e+00 0.0000000000000000e+00 0.0000000000000000e+00  -1.8333941774637040e-04 7.7270699827099073e-05 0.0000000000000000e+00  3.7261553299903286e-02 -9.7459779047577123e-06 0.0000000000000000e+00  3.5520518674386693e-02 6.7684381731842951e-05 0.0000000000000000e+00  3.7298131278901102e-02 1.8517190166509545e-06 0.0000000000000000e+00  3.7331311586349586e-02 2.9207842319801599e-05 0.0000000000000000e+00  9.1918512877570434e-06 3.7233645855034428e-02 0.0000000000000000e+00  -3.7184630462699556e-02 3.6926282957319676e-05 0.0000000000000000e+00  3.0916525445038906e-05 3.7207058271504813e-02 0.0000000000000000e+00  -3.5596395778366402e-02 1.0212061029145529e-04 0.0000000000000000e+00  8.0598630764230438e-06 -3.7218897978583319e-02 0.0000000000000000e+00  -2.7460770768650528e-05 -3.5394259040121660e-02 0.0000000000000000e+00  3.3648156643322405e-05 3.5359808536740332e-02 0.0000000000000000e+00  3.2476694957161769e-05 3.7219440150405542e-02 0.0000000000000000e+00  3.2151861565762863e-05 -3.7219523888919977e-02 0.0000000000000000e+00  5.0642099515342277e-05 -3.7268793174306841e-02 0.0000000000000000e+00  -3.7310287656623267e-02 -9.9384689538173293e-06 0.0000000000000000e+00  -3.7265364947641169e-02 -3.5281895236518350e-05 0.0000000000000000e+00  -4.3962814297483314e-05 3.7313500191495298e-02 0.0000000000000000e+00  3.7244397957447405e-02 -4.2151907694787135e-05 0.0000000000000000e+00  -5.8216645318371344e-05 -3.7052866604458570e-02 0.0000000000000000e+00  -3.7158106871968216e-02 -4.3680628843213160e-05 0.0000000000000000e+00  -2.4031526707067808e-02 -5.0526461350139940e-03 0.0000000000000000e+00  4.7780122919540650e-03 -2.3577558941226935e-02 0.0000000000000000e+00  2.3500921366534804e-02 5.0160286582839183e-03 0.0000000000000000e+00  5.0180375909955567e-03 2.3615411094103703e-02 0.0000000000000000e+00  0.0000000000000000e+00 0.0000000000000000e+00 0.0000000000000000e+00  0.0000000000000000e+00 0.0000000000000000e+00 0.0000000000000000e+00  0.0000000000000000e+00 0.0000000000000000e+00 0.0000000000000000e+00  0.0000000000000000e+00 0.0000000000000000e+00 0.0000000000000000e+00  -1.6575489414893296e-02 1.3892441461174836e-02 0.0000000000000000e+00  0.0000000000000000e+00 0.0000000000000000e+00 0.0000000000000000e+00  0.0000000000000000e+00 0.0000000000000000e+00 0.0000000000000000e+00  0.0000000000000000e+00 0.0000000000000000e+00 0.0000000000000000e+00  5.8281850975416286e-05 -3.5513479623124906e-02 0.0000000000000000e+00  0.0000000000000000e+00 0.0000000000000000e+00 0.0000000000000000e+00  -3.7144899222973288e-02 -1.1263497070396802e-06 0.0000000000000000e+00  -3.7151988864022205e-02 5.2983329299397867e-05 0.0000000000000000e+00  -3.7056049534393364e-02 1.1941523449408569e-06 0.0000000000000000e+00  0.0000000000000000e+00 0.0000000000000000e+00 0.0000000000000000e+00  0.0000000000000000e+00 0.0000000000000000e+00 0.0000000000000000e+00  1.8346654155652820e-05 3.7167778125953913e-02 0.0000000000000000e+00  -8.8486758120617457e-06 3.7211050325788454e-02 0.0000000000000000e+00  0.0000000000000000e+00 0.0000000000000000e+00 0.0000000000000000e+00  0.0000000000000000e+00 0.0000000000000000e+00 0.0000000000000000e+00  1.8221984707843722e-04 3.6914059880670369e-02 0.0000000000000000e+00  -2.8949245722585014e-04 3.7047073121079376e-02 0.0000000000000000e+00  0.0000000000000000e+00 0.0000000000000000e+00 0.0000000000000000e+00  0.0000000000000000e+00 0.0000000000000000e+00 0.0000000000000000e+00  4.7582680558289932e-05 -3.7094150140050526e-02 0.0000000000000000e+00  1.2681611141584189e-05 -3.7203490138072948e-02 0.0000000000000000e+00  0.0000000000000000e+00 0.0000000000000000e+00 0.0000000000000000e+00  -1.6772598292382106e-04 -3.7073755703739067e-02 0.0000000000000000e+00  3.5404548896166363e-04 -3.7027279334814041e-02 0.0000000000000000e+00  0.0000000000000000e+00 0.0000000000000000e+00 0.0000000000000000e+00  0.0000000000000000e+00 0.0000000000000000e+00 0.0000000000000000e+00  0.0000000000000000e+00 0.0000000000000000e+00 0.0000000000000000e+00  0.0000000000000000e+00 0.0000000000000000e+00 0.0000000000000000e+00  0.0000000000000000e+00 0.0000000000000000e+00 0.0000000000000000e+00  0.0000000000000000e+00 0.0000000000000000e+00 0.0000000000000000e+00  -3.6856108438340203e-02 2.6664315685272769e-04 0.0000000000000000e+00  -3.7019516548051537e-02 -2.5141242373735208e-04 0.0000000000000000e+00  0.0000000000000000e+00 0.0000000000000000e+00 0.0000000000000000e+00  0.0000000000000000e+00 0.0000000000000000e+00 0.0000000000000000e+00  0.0000000000000000e+00 0.0000000000000000e+00 0.0000000000000000e+00  0.0000000000000000e+00 0.0000000000000000e+00 0.0000000000000000e+00  0.0000000000000000e+00 0.0000000000000000e+00 0.0000000000000000e+00  0.0000000000000000e+00 0.0000000000000000e+00 0.0000000000000000e+00  3.6917804080981789e-02 2.9187659403916518e-04 0.0000000000000000e+00  3.7009047947823136e-02 -2.2097266961949814e-04 0.0000000000000000e+00  0.0000000000000000e+00 0.0000000000000000e+00 0.0000000000000000e+00  0.0000000000000000e+00 0.0000000000000000e+00 0.0000000000000000e+00  0.0000000000000000e+00 0.0000000000000000e+00 0.0000000000000000e+00  3.6928530300709923e-02 6.2329286692130423e-05 0.0000000000000000e+00  3.7231947672689274e-02 1.8050757554851350e-05 0.0000000000000000e+00  0.0000000000000000e+00 0.0000000000000000e+00 0.0000000000000000e+00  0.0000000000000000e+00 0.0000000000000000e+00 0.0000000000000000e+00  -6.9181791317032906e-03 3.1125990642330445e-02 0.0000000000000000e+00  3.2098348433673776e-02 -6.8944782354965319e-03 0.0000000000000000e+00  -6.4476962907181650e-03 -3.2443957781288606e-02 0.0000000000000000e+00  -3.2801540994298245e-02 6.1325877117673656e-03 0.0000000000000000e+00  4.1665297703681492e-05 -3.5341781592428567e-02 0.0000000000000000e+00  -4.8134593287179168e-06 -3.7208248514229304e-02 0.0000000000000000e+00  -3.7121906910601396e-02 -4.4956895222667848e-05 0.0000000000000000e+00  1.0592935051377405e-06 3.7147484286439734e-02 0.0000000000000000e+00  5.0883657744028778e-05 3.7033510139492361e-02 0.0000000000000000e+00  1.5668204787035851e-02 -9.8109410405542042e-03 0.0000000000000000e+00  3.5692258198122967e-02 5.0816326012355978e-03 0.0000000000000000e+00  3.6581279902665520e-05 3.5486904722583500e-02 0.0000000000000000e+00  -9.3114520329990978e-03 -1.5564505295790577e-02 0.0000000000000000e+00  -3.6972580551859584e-02 5.0165584928960119e-06 0.0000000000000000e+00  -3.7236407729308696e-02 1.0057779377906146e-05 0.0000000000000000e+00  4.4842661213826586e-05 -3.6988264112547638e-02 0.0000000000000000e+00  3.7295406926486377e-02 6.9387149295330408e-06 0.0000000000000000e+00  3.7050824623294218e-02 4.3466521491236418e-05 0.0000000000000000e+00  3.7233356964638878e-02 5.9683989905733247e-06 0.0000000000000000e+00  3.5153671539934178e-02 -1.3202072327054675e-05 0.0000000000000000e+00  3.1798444894198104e-05 3.6956731738273178e-02 0.0000000000000000e+00  -3.7114854094578778e-05 3.7222943509047472e-02 0.0000000000000000e+00  -2.0686335865714718e-05 -3.7124945357256349e-02 0.0000000000000000e+00  5.6366476998138187e-03 3.6805578982854907e-02 0.0000000000000000e+00  -3.6102644403696142e-02 -5.2591677535955951e-03 0.0000000000000000e+00  5.0409541573449108e-03 -3.5730312586711332e-02 0.0000000000000000e+00  2.6010341047567821e-05 3.7166457058191250e-02 0.0000000000000000e+00  -1.7620206138987140e-05 -3.7294582690883579e-02 0.0000000000000000e+00  -3.7274124451551496e-02 -5.9423568553638539e-05 0.0000000000000000e+00  3.5415010626347367e-02 1.2994915286237460e-05 0.0000000000000000e+00  -3.7088002209032980e-02 -1.9321096312963010e-05 0.0000000000000000e+00  3.7126024016478507e-02 -2.9966372546931463e-05 0.0000000000000000e+00  -3.7199446033353324e-02 -1.0179456108658894e-04 0.0000000000000000e+00  5.6158428113127822e-06 -3.7048856842053196e-02 0.0000000000000000e+00  5.8831860183626594e-06 3.7044962121006116e-02 0.0000000000000000e+00  3.5912983922225764e-02 9.4188725805289134e-05 0.0000000000000000e+00  3.6963034122156492e-02 -2.0178255259046909e-03 0.0000000000000000e+00  3.7178989234459253e-02 4.7841312158866774e-06 0.0000000000000000e+00  9.0624590113758028e-06 3.7132261532319737e-02 0.0000000000000000e+00  -7.9390352176365080e-05 3.7007703191193043e-02 0.0000000000000000e+00  -3.7123533672005084e-02 -1.6300892032931021e-05 0.0000000000000000e+00  -3.7016369403779732e-02 2.0293930865357950e-03 0.0000000000000000e+00  -1.2835849870595016e-03 -3.6923662518524414e-02 0.0000000000000000e+00  5.0130116728079637e-06 -3.7027877449857756e-02 0.0000000000000000e+00  -1.4413016554565507e-03 3.7196433917816275e-02 0.0000000000000000e+00  -3.7127205957161333e-02 8.7282026184971314e-05 0.0000000000000000e+00  6.2296484932208797e-05 -3.7075819737027074e-02 0.0000000000000000e+00  3.7054744626428798e-02 4.3820937897144301e-06 0.0000000000000000e+00  -3.5714590455428449e-02 -2.1371451092976421e-05 0.0000000000000000e+00  3.7227006294747851e-02 -3.9585822058236246e-06 0.0000000000000000e+00  3.5541235194430081e-02 -1.3174597796260186e-04 0.0000000000000000e+00  -3.5554408240865143e-02 -2.7922579028595541e-04 0.0000000000000000e+00  3.3173712900081642e-05 3.7073058698535957e-02 0.0000000000000000e+00  5.9608935785930566e-05 -3.7048906661504823e-02 0.0000000000000000e+00  3.5418086209360704e-02 1.0605739679447415e-03 0.0000000000000000e+00  1.1532849694062639e-03 3.6658102374122897e-02 0.0000000000000000e+00  4.4363721861251020e-05 3.7237843553128445e-02 0.0000000000000000e+00  3.5852346972587379e-02 2.4931076940153032e-05 0.0000000000000000e+00  -3.7290853718002337e-02 -8.3613461262498727e-06 0.0000000000000000e+00  -3.2827993726768506e-02 6.7730734174975551e-05 0.0000000000000000e+00  4.3300288890498663e-05 3.1891308409633737e-02 0.0000000000000000e+00  -7.6678371895486696e-06 -3.7307049073578839e-02 0.0000000000000000e+00  -1.3123837214331700e-04 -3.2429619501506468e-02 0.0000000000000000e+00  3.7305032130375303e-02 -2.3198840838059238e-05 0.0000000000000000e+00  3.2227403236305852e-02 6.6471306452733017e-05 0.0000000000000000e+00  1.2946567433432660e-05 3.3055662695014039e-02 0.0000000000000000e+00  -3.6379219743982387e-02 2.1994234697318509e-04 0.0000000000000000e+00  -9.2237354977643381e-05 -3.3016944459950237e-02 0.0000000000000000e+00  1.4434417895230718e-04 3.3234275233640878e-02 0.0000000000000000e+00  -3.8748635380602233e-05 -3.3071467306341626e-02 0.0000000000000000e+00  1.0287342028841759e-02 1.0055107005704210e-02 0.0000000000000000e+00  1.9510038152689847e-02 2.2607991675020644e-02 0.0000000000000000e+00  -2.6084279896492258e-03 1.2906955402411709e-02 0.0000000000000000e+00  1.3759362992471589e-03 -3.6683404818965440e-02 0.0000000000000000e+00  -3.6593756102744325e-02 -1.2309858329991503e-03 0.0000000000000000e+00  -1.9035798102551607e-05 3.7003021659797956e-02 0.0000000000000000e+00  5.8293348323461167e-06 -3.7071927366109904e-02 0.0000000000000000e+00  0.0000000000000000e+00 0.0000000000000000e+00 0.0000000000000000e+00  0.0000000000000000e+00 0.0000000000000000e+00 0.0000000000000000e+00  1.6715494514678833e-03 -3.1690463331770891e-02 0.0000000000000000e+00  -3.1777518668289227e-02 -1.0647657571628947e-03 0.0000000000000000e+00  -1.2033727404947988e-02 -3.1111409572212524e-03 0.0000000000000000e+00  1.9826584688744327e-02 -2.5714203815350101e-02 0.0000000000000000e+00  -3.1923723802553781e-02 -1.5429468020113218e-02 0.0000000000000000e+00  3.1691495830469298e-02 8.7147471624313382e-04 0.0000000000000000e+00  2.5927059157314212e-04 3.1328265591198647e-02 0.0000000000000000e+00  3.2006806049764431e-03 -1.1915203992058108e-02 0.0000000000000000e+00  0.0000000000000000e+00 0.0000000000000000e+00 0.0000000000000000e+00  3.3500615738627691e-02 -5.3820753973030295e-04 0.0000000000000000e+00  -3.5843134550541870e-03 -3.6973367253114564e-02 0.0000000000000000e+00  0.0000000000000000e+00 0.0000000000000000e+00 0.0000000000000000e+00  1.4344403272930552e-04 -3.3357968401225020e-02 0.0000000000000000e+00  0.0000000000000000e+00 0.0000000000000000e+00 0.0000000000000000e+00  1.8881089145437373e-04 3.3948986416722518e-02 0.0000000000000000e+00  -3.4073288334072846e-02 -2.8709095221596796e-04 0.0000000000000000e+00  0.0000000000000000e+00 0.0000000000000000e+00 0.0000000000000000e+00  0.0000000000000000e+00 0.0000000000000000e+00 0.0000000000000000e+00  0.0000000000000000e+00 0.0000000000000000e+00 0.0000000000000000e+00  2.2848450934516167e-05 -3.7225015091937375e-02 0.0000000000000000e+00  -6.1358523752947755e-05 3.7154608416804784e-02 0.0000000000000000e+00  3.7268029096676369e-02 9.7897869140890770e-06 0.0000000000000000e+00  3.6738137586805476e-02 -5.5239081265857947e-04 0.0000000000000000e+00  -3.7129127241628951e-02 -3.1932192428601108e-05 0.0000000000000000e+00  2.5810974909923290e-05 -3.7165497401621617e-02 0.0000000000000000e+00  4.7091630591476334e-05 3.7146273968318530e-02 0.0000000000000000e+00  -3.7310530135628871e-02 6.7464523738549549e-06 0.0000000000000000e+00  3.2689536502586991e-02 1.2414377416180690e-06 0.0000000000000000e+00  0.0000000000000000e+00 0.0000000000000000e+00 0.0000000000000000e+00  0.0000000000000000e+00 0.0000000000000000e+00 0.0000000000000000e+00  7.3123981101819949e-04 -3.4137449917110443e-02 0.0000000000000000e+00  -1.8313652618311986e-04 3.4168081362157696e-02 0.0000000000000000e+00  0.0000000000000000e+00 0.0000000000000000e+00 0.0000000000000000e+00  -3.6049131047705088e-02 4.6352611738581555e-04 0.0000000000000000e+00  0.0000000000000000e+00 0.0000000000000000e+00 0.0000000000000000e+00  0.0000000000000000e+00 0.0000000000000000e+00 0.0000000000000000e+00  3.6085512761015008e-02 1.1778720339381282e-04 0.0000000000000000e+00  -3.5813171394551736e-02 -4.3504440077205290e-05 0.0000000000000000e+00  0.0000000000000000e+00 0.0000000000000000e+00 0.0000000000000000e+00  0.0000000000000000e+00 0.0000000000000000e+00 0.0000000000000000e+00  -1.7363703140110640e-02 -2.7208815767071504e-02 0.0000000000000000e+00  -4.2177654236676898e-05 -3.7050603959253893e-02 0.0000000000000000e+00  -3.7028613791866574e-02 1.0318494396290504e-04 0.0000000000000000e+00  3.7160589400264642e-02 -1.2623075621083417e-06 0.0000000000000000e+00  3.2059686500952343e-05 3.7260556184519046e-02 0.0000000000000000e+00  -3.4154599461166411e-02 -1.6588949403306983e-04 0.0000000000000000e+00  2.0148181237837761e-04 3.3834186815683169e-02 0.0000000000000000e+00  -4.3763156292799470e-05 3.3452293291033247e-02 0.0000000000000000e+00  1.1083813693953175e-04 -3.3612111725128922e-02 0.0000000000000000e+00  4.1788858036663266e-05 -3.7053202457082920e-02 0.0000000000000000e+00  0.0000000000000000e+00 0.0000000000000000e+00 0.0000000000000000e+00  4.6813561441077501e-06 -3.7013372324441657e-02 0.0000000000000000e+00  -1.9253349903763543e-02 3.8562377552389731e-03 0.0000000000000000e+00  -2.8936291250270221e-02 1.9447745232275118e-02 0.0000000000000000e+00  3.3566533458341173e-02 1.5650923005990344e-02 0.0000000000000000e+00  -2.5999776394723634e-03 -3.5052309225620554e-02 0.0000000000000000e+00  1.0419343701971898e-02 6.6602235343730950e-05 0.0000000000000000e+00  -3.4378495195276325e-02 -3.2780016232607207e-04 0.0000000000000000e+00  1.2702855283839794e-05 -3.4312855697761026e-02 0.0000000000000000e+00  -3.4584581882974750e-04 3.4352672328435092e-02 0.0000000000000000e+00  3.4025969441949973e-02 5.3748138029701399e-05 0.0000000000000000e+00  3.4163645420843949e-02 2.7974670951599384e-05 0.0000000000000000e+00  2.9831147233257989e-04 3.6717941968851281e-02 0.0000000000000000e+00  3.4374074472508703e-02 5.7491964270674992e-04 0.0000000000000000e+00  4.6526083185717349e-05 -3.7243547849481105e-02 0.0000000000000000e+00  3.2244535295362789e-05 3.7253700853577230e-02 0.0000000000000000e+00  3.7105219806747566e-02 3.2408293839606224e-05 0.0000000000000000e+00  -3.7221905995336049e-02 6.9788498672373811e-05 0.0000000000000000e+00  -3.3422249304660694e-02 2.8669864273976668e-04 0.0000000000000000e+00  -2.8947986336426049e-04 -3.6658425993509415e-02 0.0000000000000000e+00  -2.5176953293501285e-04 -3.3148344168632486e-02 0.0000000000000000e+00  -3.6668736083236141e-02 6.9363071662298544e-04 0.0000000000000000e+00  3.7283296041468433e-02 2.8210806982036996e-05 0.0000000000000000e+00  1.3328115345521517e-05 3.7207385622706708e-02 0.0000000000000000e+00  3.6671215845457232e-02 5.7722759138682735e-04 0.0000000000000000e+00  -4.3759371940694895e-03 2.2983824153151634e-02 0.0000000000000000e+00  0.0000000000000000e+00 0.0000000000000000e+00 0.0000000000000000e+00  0.0000000000000000e+00 0.0000000000000000e+00 0.0000000000000000e+00  0.0000000000000000e+00 0.0000000000000000e+00 0.0000000000000000e+00  -1.1501316900896538e-05 3.7271755247046526e-02 0.0000000000000000e+00  3.1743938467220938e-05 3.7112055276165651e-02 0.0000000000000000e+00  4.1848953269391358e-05 -3.7157316243194648e-02 0.0000000000000000e+00  -3.7079832499647143e-02 -2.8489751174890743e-06 0.0000000000000000e+00  0.0000000000000000e+00 0.0000000000000000e+00 0.0000000000000000e+00  -1.3392450098113292e-05 -3.7235100446121099e-02 0.0000000000000000e+00  0.0000000000000000e+00 0.0000000000000000e+00 0.0000000000000000e+00  -3.3179182952461722e-02 -3.2047121493222973e-05 0.0000000000000000e+00  -6.2591751104002885e-05 -3.7157113775827144e-02 0.0000000000000000e+00  -2.8745912593606112e-03 3.4280916800029773e-02 0.0000000000000000e+00  -4.6187699558249296e-03 3.6209875403859858e-02 0.0000000000000000e+00  -3.7291669304842096e-02 5.2700426468453137e-06 0.00