<?xml version="1.0"?>
<VTKFile type="UnstructuredGrid"  version="0.1"  >
<UnstructuredGrid>
<Piece  NumberOfPoints="778" NumberOfCells="1401">
<Points>
<DataArray  type="Float64"  NumberOfComponents="3"  format="ascii">1 -1 0  6 -1 0  6 1 0  1 1 0  1 6 0  -1 6 0  -1 1 0  -6 1 0  -6 -1 0  -1 -1 0  -1 -6 0  1 -6 0  1 3.5 0  -1 3.5 0  -1 -3.5 0  1 -3.5 0  3.5 -1 0  3.5 1 0  -3.5 -1 0  -3.5 1 0  -1 -2.25 0  1 -2.25 0  2.25 -1 0  2.25 1 0  -1 2.25 0  1 2.25 0  -1 4.75 0  1 4.75 0  -4.75 -1 0  -4.75 1 0  -2.25 1 0  -2.25 -1 0  1 -4.75 0  -1 -4.75 0  4.75 1 0  4.75 -1 0  0 0 0  -2.875 0 0  -1.625 0 0  -4.125 0 0  -6 0 0  0 2.875 0  2.875 0 0  0 6 0  1.625 0 0  0 -2.875 0  0 -1.625 0  0 1.625 0  0 4.125 0  0 -6 0  0 -4.125 0  4.125 0 0  6 0 0  -0.109375 5.0625 0  -5.0625 -0.109375 0  -0.109375 -5.0625 0  5.0625 0.109375 0  0.8125 -0.1875 0  -0.1875 -0.8125 0  -0.8125 0.1875 0  -0.1875 0.8125 0  1 5.375 0  -5.375 1 0  1 -5.375 0  5.375 -1 0  0.53515625 0.46484375 0  -5.375 -1 0  -1 5.375 0  -1 -5.375 0  -0.5 -6 0  5.375 1 0  6 0.5 0  3.5 0.3046875 0  3.43125 -0.34765625 0  2.875 -1 0  4.125 1 0  0.3046875 3.5 0  -0.34765625 3.56875 0  -1 4.125 0  1 4.125 0  -0.3046875 2.25 0  0.34765625 2.18125 0  1 1.625 0  -1 -1.625 0  -0.3046875 -3.5 0  0.34765625 -3.56875 0  1 -4.125 0  0.3046875 -2.25 0  -0.34765625 -2.18125 0  -1 -4.125 0  -1 -2.875 0  1 -2.875 0  1 -1.625 0  1.625 -1 0  1.625 1 0  2.25 0.3046875 0  2.18125 -0.34765625 0  4.125 -1 0  2.875 1 0  1 2.875 0  -1 1.625 0  -1 2.875 0  -4.125 -1 0  -2.25 0.3046875 0  -2.31875 -0.34765625 0  -2.875 -1 0  -1.625 1 0  -4.125 1 0  -3.5 0.3046875 0  -3.56875 -0.34765625 0  -1.625 -1 0  -2.875 1 0  0.380626321794301 1.06853329530276 0  -1.110819327731092 -0.3739495798319328 0  0.3739495798319328 -1.110819327731092 0  1.151210293219304 0.3991939332620648 0  -0.5 -4.4375 0  0.5 -4.4375 0  5.481553398058253 -0.3712833737864077 0  0.5 4.4375 0  0.5 6 0  -0.522503783594538 -0.3265648647465863 0  -1.3125 0.5 0  -0.5 6 0  0.3265648647465863 -0.522503783594538 0  4.4375 0.5 0  4.4375 -0.5 0  0.5 -6 0  -6 -0.5 0  -5.481553398058253 0.3712833737864077 0  -4.55 -0.4296875 0  -4.4375 0.5 0  -0.5 4.4375 0  0.4792930825242718 5.026881067961165 0  0.4792930825242718 -5.026881067961165 0  -0.5 1.3125 0  1.3125 -0.5 0  -0.5 -1.3125 0  0.25 5.518539952962044 0  0.2125133872612723 -5.500076563152851 0  4.969341874373811 -0.5152550785163683 0  -4.969341874373811 0.5152550785163683 0  3.927189744345589 -0.4712876597840069 0  -5.554036458333333 -0.25 0  5.554036458333333 0.25 0  -0.4690710616438356 -5.462756849315069 0  -0.4690710616438356 5.462756849315069 0  -6 0.5 0  -1.59556436210848 -0.5 0  -3.058421751829955 -0.5 0  -0.5 2.731982421875 0  0.5 2.691578248170045 0  2.691578248170045 -0.5 0  1.641211254104555 0.5 0  0.5 -1.768017578125 0  0.5 -3.058421751829955 0  0.5 1.699267578125 0  3.018017578125 0.5 0  -0.5 -3.018017578125 0  -2.731982421875 0.5 0  6 -0.5 0  -4.050017120925308 -0.5006099332648871 0  -3.940668202764977 0.5371363767281105 0  3.940668202764977 0.5371363767281105 0  0.4517449476047904 3.958458083832335 0  -0.4517449476047904 -3.958458083832335 0  -1.809331797235023 0.5371363767281105 0  -0.4517449476047904 1.791541916167665 0  -0.0546875 4.59375 0  -5.006445312499999 -0.58984375 0  4.605643203883496 -0.04725424757281554 0  4.90625 0.5546875 0  -0.5546875 4.90625 0  0.04725424757281554 -4.605643203883496 0  -0.586116118210531 -4.995821561900013 0  -4.603710222472543 0.04846236095466061 0  -3.1875 0.65234375 0  0.6163907621110913 3.147502300973589 0  2.5625 0.65234375 0  0.6163907621110913 -2.602497699026411 0  -0.637456713551384 3.189259902731882 0  -0.637456713551384 -2.560740097268118 0  -0.34765625 0.34765625 0  -0.639453125 0.708203125 0  0.089630126953125 0.437286376953125 0  -0.4238281249999999 -1.746875 0  1.746875 -0.4238281249999999 0  -0.4238281249999999 4.003125 0  0.4238281249999999 -4.003125 0  -2.5625 -1 0  3.1875 -1 0  -0.09375 -1.21875 0  1.21875 -0.09375 0  0.4020305405760241 -0.1120343241705621 0  -0.6280191027904287 -0.7577505545748082 0  0.90625 -0.59375 0  -1.205500904741459 0.03633725387965409 0  -0.02129048848213058 1.202028574265107 0  -0.1120343241705621 -0.4020305405760241 0  1 1.3125 0  -2.003587563743074 -0.6442361556699288 0  0.6640077663259718 -1.395873598614549 0  5.6875 -1 0  0.6308138580859101 -5.592151086468728 0  -5.6875 -1 0  0.6568032075915271 5.612942566073222 0  5.616530031741774 0.6612875396772174 0  -5.6875 1 0  1.9375 1 0  -1.3125 -1 0  0.1524679547155687 -3.232579139388032 0  0.1524679547155687 2.517420860611968 0  -3.232579139388032 -0.1524679547155687 0  -1.932320553757026 -0.252759244693845 0  2.517420860611968 -0.1524679547155687 0  -0.04776045819569434 -2.464949198504599 0  -0.2420369079104247 3.187693796852321 0  3.751304711039982 -0.1203080877045035 0  -5.397601941771943 -0.609026059866711 0  1.3125 1 0  1.9375 -1 0  -0.6946315101963667 -2.018229242739021 0  -0.6946315101963667 3.731770757260979 0  1 -3.8125 0  2.014364435550335 0.6166648446293641 0  -1 5.6875 0  -1 -5.6875 0  -2.653476149871182 -0.5942957192996303 0  3.096523850128818 -0.5942957192996303 0  1 1.9375 0  -3.8125 -1 0  0.586975531244212 -0.7975955463807081 0  -0.2946248980953088 -4.743710873809568 0  2.625453376770019 0.2814788818359375 0  -3.124546623229981 0.2814788818359375 0  -0.1204856417894853 5.631800603217465 0  5.253862011026742 0.6581468962876398 0  -0.65234375 2.108701557941197 0  0.65234375 3.641298442058803 0  -0.65234375 -3.641298442058803 0  -0.25 -5.744880569758637 0  -4.4375 -1 0  -0.3166212631734941 -2.713595940002554 0  0.6591479224207506 0.1324305912687024 0  0.8660781906552419 0.6468634238104103 0  -0.9887189158197679 0.6452930723873549 0  0.3149351927204296 -1.460971774996065 0  -0.3572852727880474 -0.009629022788047503 0  2.09375 -0.6866724363772454 0  0.6866724363772454 -3.65625 0  0.6866724363772454 2.09375 0  -3.65625 -0.6866724363772454 0  -3.5371337890625 0.65234375 0  -0.1389584113023952 1.944025352615082 0  -2.151744288472698 0.65234375 0  -0.1389584113023951 -3.805974647384918 0  0.1389584113023951 3.805974647384918 0  -2.578772109813904 0.1857224367977529 0  3.171227890186096 0.1857224367977529 0  3.360315647536819 0.65234375 0  0.1857224367977528 -1.921227890186096 0  0.65234375 -2.110315647536819 0  1.894016528727564 0.2415406141485869 0  -3.738232421875 0 0  0.2516875549238616 3.139069895099618 0  -1.913724396854074 0.2011142179916434 0  0.1669456568161915 0.7843410671359501 0  -2.5625 1 0  -1 -3.1875 0  -1 2.5625 0  0.1736601499778735 4.857955663330752 0  -0.1893536587212888 2.577300639071919 0  -0.1893536587212888 -3.172699360928081 0  3.852271904453858 0.206603749322895 0  -3.8125 1 0  -0.1250095034621793 -5.421707592768541 0  3.8125 -1 0  3.617304217264373 -0.6578427703661498 0  0.2630176195580202 -2.636558318495885 0  0.2674330357770522 1.399517071108871 0  0.631726413079416 1.339254523727593 0  4.700571879807737 0.2813704945051134 0  0.7143844363649634 -3.319538455208831 0  2.430461544791169 -0.7143844363649634 0  0.7143844363649634 2.430461544791169 0  -3.319538455208831 -0.7143844363649634 0  5.687045771608623 -0.6520598572553891 0  -5.687045771608623 0.6520598572553891 0  -1.15625 -0.7048248829733235 0  3.438284572973296 -0.01860298867862281 0  -0.03021088078697859 3.451572359862192 0  2.216682837011589 -0.02159585961918548 0  -2.191580885932936 -0.03126387444658879 0  0.1857410764408683 1.895679405349457 0  3.103473238297955 -0.253270943723272 0  -2.646526761702045 -0.253270943723272 0  -2.333137350671861 -0.6791984914172315 0  -1 5.0625 0  -0.6971235589909319 5.213002544375844 0  0.01618705363819947 2.225929180591695 0  0.01618705363819947 -3.524070819408305 0  0.5690054882403073 0.7951310720450595 0  -0.5764940424412852 -3.329579265180942 0  -0.5764940424412852 2.420420734819058 0  3.8125 1 0  -5.372163860234628 0.04365139563106807 0  5.164108319316826 -0.225040894204947 0  -5.361952437854323 0.6744012088984681 0  -5.0625 1 0  5.286835586913878 -0.6616705837083201 0  -5.692815197359722 0.1186699900166531 0  5.663425996156958 -0.07763197815533956 0  -0.9219866027132193 -0.1143045829323572 0  -1.394333629759332 -0.2233077430199216 0  0.09322478991596644 -0.9616596638655462 0  5.0625 -1 0  -0.14412109375 -1.92169189453125 0  -4.28125 -0.7212148987671345 0  0.2649796277366407 0.1735162902120744 0  -4.907855692236596 0.1868230509619793 0  -1.9375 1 0  1 5.0625 0  0.6915124486819284 -5.272938212550202 0  0.683483242673902 5.284948082526911 0  2.5625 -1 0  -1 -3.8125 0  -1 1.9375 0  5.0625 1 0  -1 -1.9375 0  1 5.6875 0  1 -5.6875 0  -1.9375 -1 0  -1 -2.5625 0  -1 3.1875 0  1 -3.1875 0  1 -2.5625 0  1 2.5625 0  1 3.1875 0  -5.0625 -1 0  -1 -1.3125 0  1.3125 -1 0  -1 1.3125 0  -1 3.8125 0  -1 4.4375 0  -4.4375 1 0  4.4375 -1 0  4.4375 1 0  -1.3125 1 0  1 4.4375 0  1 -4.4375 0  -1 -5.0625 0  -1 -4.4375 0  -3.1875 1 0  2.5625 1 0  1 -1.9375 0  1 -1.3125 0  5.6875 1 0  1 3.8125 0  3.1875 1 0  -3.1875 -1 0  1 -5.0625 0  1.35138038998199 0.6675097549271188 0  -0.465625 0.986328125 0  1.435958105992309 0.2563920171199723 0  1.915914614192913 -0.145782394639918 0  -0.8764440609469509 -0.5746869313612541 0  5.355194559946098 0.01566259380337612 0  -5.69333042954964 -0.5242868300459975 0  1.78125 -0.7320750794491524 0  0.7320750794491525 -3.96875 0  -0.3959075548864684 5.166422468926435 0  -4.770522389068053 -0.2123670725088856 0  -4.714160156249999 -0.69234375 0  -4.273484403713342 -0.278160994327167 0  0.9642590244517505 0.08196089404241463 0  0.3500261717645397 -4.727285205957206 0  0.6740868006020392 -4.765147848348443 0  0.6797550207247084 -1.089747806381148 0  -5.186479934354063 0.3046329157552757 0  -5.263288238215326 -0.3369092276308425 0  -2.433484016245305 0.5442571297016638 0  0.1707808983307866 -3.82363304980935 0  -0.1554012991031027 3.867535742674252 0  4.855508096805579 -0.2283975605264581 0  3.644517238097614 0.5646428152488787 0  0.05699603874439441 -0.6452791208413911 0  -0.3550018917972689 -0.5695324323732931 0  0.6
[...]
<PointData  Vectors="u"> 
<DataArray  type="Float64"  Name="u"  NumberOfComponents="3" format="ascii">0.0000000000000000e+00 0.0000000000000000e+00 0.0000000000000000e+00  0.0000000000000000e+00 0.0000000000000000e+00 0.0000000000000000e+00  0.0000000000000000e+00 0.0000000000000000e+00 0.0000000000000000e+00  0.0000000000000000e+00 0.0000000000000000e+00 0.0000000000000000e+00  0.0000000000000000e+00 0.0000000000000000e+00 0.0000000000000000e+00  0.0000000000000000e+00 0.0000000000000000e+00 0.0000000000000000e+00  0.0000000000000000e+00 0.0000000000000000e+00 0.0000000000000000e+00  0.0000000000000000e+00 0.0000000000000000e+00 0.0000000000000000e+00  0.0000000000000000e+00 0.0000000000000000e+00 0.0000000000000000e+00  0.0000000000000000e+00 0.0000000000000000e+00 0.0000000000000000e+00  0.0000000000000000e+00 0.0000000000000000e+00 0.0000000000000000e+00  0.0000000000000000e+00 0.0000000000000000e+00 0.0000000000000000e+00  0.0000000000000000e+00 0.0000000000000000e+00 0.0000000000000000e+00  0.0000000000000000e+00 0.0000000000000000e+00 0.0000000000000000e+00  0.0000000000000000e+00 0.0000000000000000e+00 0.0000000000000000e+00  0.0000000000000000e+00 0.0000000000000000e+00 0.0000000000000000e+00  0.0000000000000000e+00 0.0000000000000000e+00 0.0000000000000000e+00  0.0000000000000000e+00 0.0000000000000000e+00 0.0000000000000000e+00  0.0000000000000000e+00 0.0000000000000000e+00 0.0000000000000000e+00  0.0000000000000000e+00 0.0000000000000000e+00 0.0000000000000000e+00  0.0000000000000000e+00 0.0000000000000000e+00 0.0000000000000000e+00  0.0000000000000000e+00 0.0000000000000000e+00 0.0000000000000000e+00  0.0000000000000000e+00 0.0000000000000000e+00 0.0000000000000000e+00  0.0000000000000000e+00 0.0000000000000000e+00 0.0000000000000000e+00  0.0000000000000000e+00 0.0000000000000000e+00 0.0000000000000000e+00  0.0000000000000000e+00 0.0000000000000000e+00 0.0000000000000000e+00  0.0000000000000000e+00 0.0000000000000000e+00 0.0000000000000000e+00  0.0000000000000000e+00 0.0000000000000000e+00 0.0000000000000000e+00  0.0000000000000000e+00 0.0000000000000000e+00 0.0000000000000000e+00  0.0000000000000000e+00 0.0000000000000000e+00 0.0000000000000000e+00  0.0000000000000000e+00 0.0000000000000000e+00 0.0000000000000000e+00  0.0000000000000000e+00 0.0000000000000000e+00 0.0000000000000000e+00  0.0000000000000000e+00 0.0000000000000000e+00 0.0000000000000000e+00  0.0000000000000000e+00 0.0000000000000000e+00 0.0000000000000000e+00  0.0000000000000000e+00 0.0000000000000000e+00 0.0000000000000000e+00  0.0000000000000000e+00 0.0000000000000000e+00 0.0000000000000000e+00  -1.9629877577816783e-04 8.9421150784061394e-05 0.0000000000000000e+00  4.3568299479289148e-02 -1.0816084303426012e-05 0.0000000000000000e+00  4.1567087901323345e-02 6.7958699785129151e-05 0.0000000000000000e+00  4.3615541622587038e-02 2.6784444364761675e-06 0.0000000000000000e+00  4.3655385217434624e-02 3.2725899198356578e-05 0.0000000000000000e+00  1.0769176141711017e-05 4.3545779274444876e-02 0.0000000000000000e+00  -4.3484254492891075e-02 4.0758231918812217e-05 0.0000000000000000e+00  3.4809908112297171e-05 4.3504109113924445e-02 0.0000000000000000e+00  -4.1654303721296818e-02 1.1101585373658266e-04 0.0000000000000000e+00  7.9222048804105391e-06 -4.3523257345472494e-02 0.0000000000000000e+00  -2.4133650499044046e-05 -4.1452011736951261e-02 0.0000000000000000e+00  3.7515297945853545e-05 4.1405924182980794e-02 0.0000000000000000e+00  3.5159448461180023e-05 4.3520263362409078e-02 0.0000000000000000e+00  3.5945727478307136e-05 -4.3520295697770196e-02 0.0000000000000000e+00  5.8266818925749588e-05 -4.3576979415228832e-02 0.0000000000000000e+00  -4.3627117596749677e-02 -1.3037994003081834e-05 0.0000000000000000e+00  -4.3582628622008963e-02 -4.0737555026135850e-05 0.0000000000000000e+00  -5.2669944667696369e-05 4.3629182126978895e-02 0.0000000000000000e+00  4.3561256972051689e-02 -5.2397969054052646e-05 0.0000000000000000e+00  -6.8213931875937383e-05 -4.3359163302487229e-02 0.0000000000000000e+00  -4.3472621052887267e-02 -5.1947216750452787e-05 0.0000000000000000e+00  -2.8145246570730854e-02 -5.8852976140908002e-03 0.0000000000000000e+00  5.6207198624939822e-03 -2.7664736962779071e-02 0.0000000000000000e+00  2.7577097959059826e-02 5.8258426318226371e-03 0.0000000000000000e+00  5.8625973938671479e-03 2.7710252002256582e-02 0.0000000000000000e+00  0.0000000000000000e+00 0.0000000000000000e+00 0.0000000000000000e+00  0.0000000000000000e+00 0.0000000000000000e+00 0.0000000000000000e+00  0.0000000000000000e+00 0.0000000000000000e+00 0.0000000000000000e+00  0.0000000000000000e+00 0.0000000000000000e+00 0.0000000000000000e+00  -1.9405598821433053e-02 1.6306452460256003e-02 0.0000000000000000e+00  0.0000000000000000e+00 0.0000000000000000e+00 0.0000000000000000e+00  0.0000000000000000e+00 0.0000000000000000e+00 0.0000000000000000e+00  0.0000000000000000e+00 0.0000000000000000e+00 0.0000000000000000e+00  6.1289021355115920e-05 -4.1523468883903639e-02 0.0000000000000000e+00  0.0000000000000000e+00 0.0000000000000000e+00 0.0000000000000000e+00  -4.3423932281513734e-02 -4.3096507581133170e-07 0.0000000000000000e+00  -4.3535652129068604e-02 5.7714298611215260e-05 0.0000000000000000e+00  -4.3427883500318544e-02 6.8257308971082969e-06 0.0000000000000000e+00  0.0000000000000000e+00 0.0000000000000000e+00 0.0000000000000000e+00  0.0000000000000000e+00 0.0000000000000000e+00 0.0000000000000000e+00  2.2543582936311368e-05 4.3485950232228635e-02 0.0000000000000000e+00  -7.8022261405215317e-06 4.3554496747774112e-02 0.0000000000000000e+00  0.0000000000000000e+00 0.0000000000000000e+00 0.0000000000000000e+00  0.0000000000000000e+00 0.0000000000000000e+00 0.0000000000000000e+00  2.1212826338791628e-04 4.3233424183592085e-02 0.0000000000000000e+00  -3.2876231428295987e-04 4.3349121595852386e-02 0.0000000000000000e+00  0.0000000000000000e+00 0.0000000000000000e+00 0.0000000000000000e+00  0.0000000000000000e+00 0.0000000000000000e+00 0.0000000000000000e+00  4.8244711211635098e-05 -4.3432669906117008e-02 0.0000000000000000e+00  1.4565067585559635e-05 -4.3524568161538990e-02 0.0000000000000000e+00  0.0000000000000000e+00 0.0000000000000000e+00 0.0000000000000000e+00  -1.9305460325936706e-04 -4.3356391820039655e-02 0.0000000000000000e+00  4.0402510788689090e-04 -4.3352034577167520e-02 0.0000000000000000e+00  0.0000000000000000e+00 0.0000000000000000e+00 0.0000000000000000e+00  0.0000000000000000e+00 0.0000000000000000e+00 0.0000000000000000e+00  0.0000000000000000e+00 0.0000000000000000e+00 0.0000000000000000e+00  0.0000000000000000e+00 0.0000000000000000e+00 0.0000000000000000e+00  0.0000000000000000e+00 0.0000000000000000e+00 0.0000000000000000e+00  0.0000000000000000e+00 0.0000000000000000e+00 0.0000000000000000e+00  -4.3191294149483597e-02 2.9884523162951245e-04 0.0000000000000000e+00  -4.3315555779054465e-02 -2.8926568906208569e-04 0.0000000000000000e+00  0.0000000000000000e+00 0.0000000000000000e+00 0.0000000000000000e+00  0.0000000000000000e+00 0.0000000000000000e+00 0.0000000000000000e+00  0.0000000000000000e+00 0.0000000000000000e+00 0.0000000000000000e+00  0.0000000000000000e+00 0.0000000000000000e+00 0.0000000000000000e+00  0.0000000000000000e+00 0.0000000000000000e+00 0.0000000000000000e+00  0.0000000000000000e+00 0.0000000000000000e+00 0.0000000000000000e+00  4.3284000539011346e-02 3.2159492643731865e-04 0.0000000000000000e+00  4.3375725608102940e-02 -2.5958733150883929e-04 0.0000000000000000e+00  0.0000000000000000e+00 0.0000000000000000e+00 0.0000000000000000e+00  0.0000000000000000e+00 0.0000000000000000e+00 0.0000000000000000e+00  0.0000000000000000e+00 0.0000000000000000e+00 0.0000000000000000e+00  4.3279420663445374e-02 7.3476309515961051e-05 0.0000000000000000e+00  4.3556671733997132e-02 2.1014223735549068e-05 0.0000000000000000e+00  0.0000000000000000e+00 0.0000000000000000e+00 0.0000000000000000e+00  0.0000000000000000e+00 0.0000000000000000e+00 0.0000000000000000e+00  -8.0959797255110849e-03 3.6537057047315802e-02 0.0000000000000000e+00  3.7652200758791055e-02 -8.0074257311008954e-03 0.0000000000000000e+00  -7.5489110347239765e-03 -3.8036246227897454e-02 0.0000000000000000e+00  -3.8470513899731516e-02 7.1493509283723517e-03 0.0000000000000000e+00  4.2684954318209505e-05 -4.1368335764853950e-02 0.0000000000000000e+00  -3.7116655920697727e-06 -4.3545609000830592e-02 0.0000000000000000e+00  -4.3493679076076062e-02 -5.5116179628521651e-05 0.0000000000000000e+00  2.0167043929890414e-06 4.3471847783147027e-02 0.0000000000000000e+00  5.0116059925196471e-05 4.3384231156588036e-02 0.0000000000000000e+00  1.8359928607010731e-02 -1.1489272805282082e-02 0.0000000000000000e+00  4.1856519254632255e-02 5.9287202745026335e-03 0.0000000000000000e+00  3.4659068470948788e-05 4.1501999499282509e-02 0.0000000000000000e+00  -1.0959571670239811e-02 -1.8275240942698633e-02 0.0000000000000000e+00  -4.3341842228025541e-02 -7.6932735864329331e-06 0.0000000000000000e+00  -4.3576421230239137e-02 9.5243982124587459e-06 0.0000000000000000e+00  4.0228162484551193e-05 -4.3352658386107114e-02 0.0000000000000000e+00  4.3642436055173928e-02 4.4068742014083165e-06 0.0000000000000000e+00  4.3413145831063656e-02 4.8440938118611301e-05 0.0000000000000000e+00  4.3599554939837429e-02 6.0739111129707142e-06 0.0000000000000000e+00  4.1178989836374275e-02 -1.4292320281860224e-05 0.0000000000000000e+00  2.8715393286730103e-05 4.3284851380557605e-02 0.0000000000000000e+00  -3.7996493349530730e-05 4.3568066712177167e-02 0.0000000000000000e+00  -2.4720306421333708e-05 -4.3478131794146710e-02 0.0000000000000000e+00  6.4955428625686640e-03 4.3107319700176033e-02 0.0000000000000000e+00  -4.2331100388238320e-02 -6.0564913739998864e-03 0.0000000000000000e+00  5.9006714220955154e-03 -4.1896039332587245e-02 0.0000000000000000e+00  2.9443071717230098e-05 4.3481734853890078e-02 0.0000000000000000e+00  -2.0974728729829707e-05 -4.3604660161731708e-02 0.0000000000000000e+00  -4.3621793571645778e-02 -6.1872835578688834e-05 0.0000000000000000e+00  4.1543783531142277e-02 1.0351683701192581e-05 0.0000000000000000e+00  -4.3445827885593272e-02 -2.3033251229777803e-05 0.0000000000000000e+00  4.3485783288846384e-02 -4.3969141097490332e-05 0.0000000000000000e+00  -4.3522238198893025e-02 -1.1868716137818981e-04 0.0000000000000000e+00  4.3657772189868721e-06 -4.3379258493375893e-02 0.0000000000000000e+00  8.5848032014036447e-06 4.3391470448543447e-02 0.0000000000000000e+00  4.2071688502550560e-02 1.0507277386814598e-04 0.0000000000000000e+00  4.3281410854895591e-02 -2.3276667461516894e-03 0.0000000000000000e+00  4.3535008301145463e-02 8.5644976440569658e-06 0.0000000000000000e+00  4.5390364741145214e-06 4.3484802505366509e-02 0.0000000000000000e+00  -8.6761199413279839e-05 4.3355307904736726e-02 0.0000000000000000e+00  -4.3473545344320089e-02 -2.0661112023007171e-05 0.0000000000000000e+00  -4.3345834288634248e-02 2.3256021809747829e-03 0.0000000000000000e+00  -1.4412365589447384e-03 -4.3210167701035397e-02 0.0000000000000000e+00  -8.9403624318899762e-08 -4.3388977066793663e-02 0.0000000000000000e+00  -1.6344121418810735e-03 4.3521613462209563e-02 0.0000000000000000e+00  -4.3434665979093880e-02 9.4719127414577829e-05 0.0000000000000000e+00  7.7246908928421202e-05 -4.3414148750202781e-02 0.0000000000000000e+00  4.3430454429186714e-02 4.3258408851903064e-06 0.0000000000000000e+00  -4.1887111950699434e-02 -3.1746057530143705e-05 0.0000000000000000e+00  4.3562582934460858e-02 -4.1163240638961088e-06 0.0000000000000000e+00  4.1670252073765332e-02 -1.5282083535463954e-04 0.0000000000000000e+00  -4.1674676541027626e-02 -3.2557136018530246e-04 0.0000000000000000e+00  3.3238071314657219e-05 4.3427876666555391e-02 0.0000000000000000e+00  6.9026938943545134e-05 -4.3411262398873295e-02 0.0000000000000000e+00  4.1483895369752694e-02 1.2183840023591165e-03 0.0000000000000000e+00  1.3143511000505371e-03 4.2925615934177715e-02 0.0000000000000000e+00  5.0015181431158625e-05 4.3546594951125485e-02 0.0000000000000000e+00  4.2043496476811534e-02 4.2897443827700956e-05 0.0000000000000000e+00  -4.3606850703531361e-02 -8.7988916135411530e-06 0.0000000000000000e+00  -3.8750814052342736e-02 7.5230392516738997e-05 0.0000000000000000e+00  5.2558135308651118e-05 3.7748356282917984e-02 0.0000000000000000e+00  -9.5526356865318383e-06 -4.3626515923059321e-02 0.0000000000000000e+00  -1.5983157750831052e-04 -3.8337656073493133e-02 0.0000000000000000e+00  4.3628857545563941e-02 -2.8855750121236787e-05 0.0000000000000000e+00  3.8210350797508542e-02 8.3638540797138815e-05 0.0000000000000000e+00  2.0967599475992028e-05 3.9062932751740859e-02 0.0000000000000000e+00  -4.2669146782970832e-02 2.4999051705785347e-04 0.0000000000000000e+00  -1.2289139462970543e-04 -3.9012143344417376e-02 0.0000000000000000e+00  1.7637758883911283e-04 3.9347230954181633e-02 0.0000000000000000e+00  -5.6020648583082304e-05 -3.9269403294688310e-02 0.0000000000000000e+00  1.2073763131038336e-02 1.1836690749570965e-02 0.0000000000000000e+00  2.2959476775747112e-02 2.6542170059931036e-02 0.0000000000000000e+00  -3.0808813022300389e-03 1.5144049814766851e-02 0.0000000000000000e+00  1.5748164303122519e-03 -4.2958355269774519e-02 0.0000000000000000e+00  -4.2843646846606305e-02 -1.4133960879735587e-03 0.0000000000000000e+00  -2.1420228213316034e-05 4.3349261956000029e-02 0.0000000000000000e+00  3.5286844297615795e-06 -4.3428754563618673e-02 0.0000000000000000e+00  0.0000000000000000e+00 0.0000000000000000e+00 0.0000000000000000e+00  0.0000000000000000e+00 0.0000000000000000e+00 0.0000000000000000e+00  1.9427843421353592e-03 -3.7160737695129342e-02 0.0000000000000000e+00  -3.7219706750322532e-02 -1.2722716639862993e-03 0.0000000000000000e+00  -1.4113575816642528e-02 -3.6642026754690523e-03 0.0000000000000000e+00  2.3160283613553125e-02 -3.0145907142091304e-02 0.0000000000000000e+00  -3.7474338843955464e-02 -1.7947227847964060e-02 0.0000000000000000e+00  3.7099136693641982e-02 9.8681280498007814e-04 0.0000000000000000e+00  3.2728924609372431e-04 3.6707657717111215e-02 0.0000000000000000e+00  3.7685622584701776e-03 -1.3973440595321221e-02 0.0000000000000000e+00  0.0000000000000000e+00 0.0000000000000000e+00 0.0000000000000000e+00  3.9625721913076582e-02 -6.2792519897271601e-04 0.0000000000000000e+00  -3.9627999365301212e-03 -4.3317545534171463e-02 0.0000000000000000e+00  0.0000000000000000e+00 0.0000000000000000e+00 0.0000000000000000e+00  1.6984728204075974e-04 -3.9503680580089476e-02 0.0000000000000000e+00  0.0000000000000000e+00 0.0000000000000000e+00 0.0000000000000000e+00  2.2619600217737193e-04 4.0130890058827216e-02 0.0000000000000000e+00  -4.0272849800481680e-02 -3.4308376822066866e-04 0.0000000000000000e+00  0.0000000000000000e+00 0.0000000000000000e+00 0.0000000000000000e+00  0.0000000000000000e+00 0.0000000000000000e+00 0.0000000000000000e+00  0.0000000000000000e+00 0.0000000000000000e+00 0.0000000000000000e+00  2.7314908766459511e-05 -4.3534700160562566e-02 0.0000000000000000e+00  -6.8626492604170592e-05 4.3456182346683414e-02 0.0000000000000000e+00  4.3579719856624802e-02 1.1751323993979977e-05 0.0000000000000000e+00  4.2999042188075549e-02 -6.3238871193005777e-04 0.0000000000000000e+00  -4.3422668751680313e-02 -3.5847681726258762e-05 0.0000000000000000e+00  2.9633142526084975e-05 -4.3469461820446607e-02 0.0000000000000000e+00  5.7633171942594591e-05 4.3489149468504344e-02 0.0000000000000000e+00  -4.3635047368004720e-02 7.5933129825212315e-06 0.0000000000000000e+00  3.8778663332538037e-02 1.9135331594473809e-06 0.0000000000000000e+00  0.0000000000000000e+00 0.0000000000000000e+00 0.0000000000000000e+00  0.0000000000000000e+00 0.0000000000000000e+00 0.0000000000000000e+00  8.3607005004322614e-04 -4.0393291595844545e-02 0.0000000000000000e+00  -2.1922954223734640e-04 4.0463227392742593e-02 0.0000000000000000e+00  0.0000000000000000e+00 0.0000000000000000e+00 0.0000000000000000e+00  -4.2281166257686797e-02 5.2426336539705481e-04 0.0000000000000000e+00  0.0000000000000000e+00 0.0000000000000000e+00 0.0000000000000000e+00  0.0000000000000000e+00 0.0000000000000000e+00 0.0000000000000000e+00  4.2270948238517000e-02 1.4600177579884627e-04 0.0000000000000000e+00  -4.1952685396201943e-02 -4.8666011106602235e-05 0.0000000000000000e+00  0.0000000000000000e+00 0.0000000000000000e+00 0.0000000000000000e+00  0.0000000000000000e+00 0.0000000000000000e+00 0.0000000000000000e+00  -2.0333158852895716e-02 -3.1921543709268009e-02 0.0000000000000000e+00  -5.5944016027206124e-05 -4.3432998218306713e-02 0.0000000000000000e+00  -4.3352423266355883e-02 1.1162839158884650e-04 0.0000000000000000e+00  4.3487110862624162e-02 -4.0823639740340432e-06 0.0000000000000000e+00  3.8066393332227775e-05 4.3569637214244269e-02 0.0000000000000000e+00  -4.0450141867548230e-02 -1.9059443428952571e-04 0.0000000000000000e+00  2.2853603962225651e-04 4.0119116442958333e-02 0.0000000000000000e+00  -6.5174873626874723e-05 3.9579968685860306e-02 0.0000000000000000e+00  1.3268020711362796e-04 -3.9841582139358810e-02 0.0000000000000000e+00  4.9921535155543339e-05 -4.3389458342692921e-02 0.0000000000000000e+00  0.0000000000000000e+00 0.0000000000000000e+00 0.0000000000000000e+00  5.0462650914945681e-06 -4.3366022683896131e-02 0.0000000000000000e+00  -2.2621508753749301e-02 4.4921428536137406e-03 0.0000000000000000e+00  -3.3925079293754462e-02 2.2766685314188836e-02 0.0000000000000000e+00  3.9395150190994939e-02 1.8304075087399264e-02 0.0000000000000000e+00  -2.9818672034969398e-03 -4.1046987668834405e-02 0.0000000000000000e+00  1.2244468208598360e-02 2.2425758112611522e-05 0.0000000000000000e+00  -4.0635912324511234e-02 -3.7391714673755617e-04 0.0000000000000000e+00  1.4886148976012444e-05 -4.0532300545303247e-02 0.0000000000000000e+00  -3.9447235834891368e-04 4.0607452955857881e-02 0.0000000000000000e+00  4.0239850460376675e-02 6.7899660461565072e-05 0.0000000000000000e+00  4.0491451309917784e-02 4.4457465306753473e-05 0.0000000000000000e+00  3.4434656972181284e-04 4.2956645796071703e-02 0.0000000000000000e+00  4.0789216422194061e-02 6.5026533065016396e-04 0.0000000000000000e+00  5.1533866059664240e-05 -4.3553402020322360e-02 0.0000000000000000e+00  3.6685286436778483e-05 4.3564151778638975e-02 0.0000000000000000e+00  4.3420958733724591e-02 3.2317614943913813e-05 0.0000000000000000e+00  -4.3522480586666197e-02 8.1663902111797840e-05 0.0000000000000000e+00  -3.9664460586660004e-02 3.4680423920219531e-04 0.0000000000000000e+00  -3.3606082980704909e-04 -4.2881945785563619e-02 0.0000000000000000e+00  -2.7941006201485734e-04 -3.9333829938824033e-02 0.0000000000000000e+00  -4.2907276225250771e-02 7.8717513551005932e-04 0.0000000000000000e+00  4.3599593511398728e-02 3.1823675904155138e-05 0.0000000000000000e+00  1.6572980143328851e-05 4.3535630830150315e-02 0.0000000000000000e+00  4.2904412590318679e-02 6.5704841889205226e-04 0.0000000000000000e+00  -5.1462177565555984e-03 2.6951570566662295e-02 0.0000000000000000e+00  0.0000000000000000e+00 0.0000000000000000e+00 0.0000000000000000e+00  0.0000000000000000e+00 0.0000000000000000e+00 0.0000000000000000e+00  0.0000000000000000e+00 0.0000000000000000e+00 0.0000000000000000e+00  -1.2529248668424466e-05 4.3580742604895792e-02 0.0000000000000000e+00  3.6470514611102099e-05 4.3409384597303931e-02 0.0000000000000000e+00  4.7880187999053908e-05 -4.3455711688488226e-02 0.0000000000000000e+00  -4.3420726778766176e-02 3.2579288255650299e-06 0.0000000000000000e+00  0.0000000000000000e+00 0.0000000000000000e+00 0.0000000000000000e+00  -1.7443701610834076e-05 -4.3541365502522140e-02 0.0000000000000000e+00  0.0000000000000000e+00 0.0000000000000000e+00 0.0000000000000000e+00  -3.9303588422197007e-02 -3.0751390381894804e-05 0.0000000000000000e+00  -7.0240750680400563e-05 -4.3474530634366369e-02 0.0000000000000000e+00  -3.2953139470736298e-03 4.0176122004524480e-02 0.0000000000000000e+00  -5.1610873185046341e-03 4.2368516230681642e-02 0.0000000000000000e+00  -4.3632387967439179e-02 5.9369542480944375e-06 0.0