<?xml version="1.0"?>
<VTKFile type="UnstructuredGrid"  version="0.1"  >
<UnstructuredGrid>
<Piece  NumberOfPoints="778" NumberOfCells="1401">
<Points>
<DataArray  type="Float64"  NumberOfComponents="3"  format="ascii">1 -1 0  6 -1 0  6 1 0  1 1 0  1 6 0  -1 6 0  -1 1 0  -6 1 0  -6 -1 0  -1 -1 0  -1 -6 0  1 -6 0  1 3.5 0  -1 3.5 0  -1 -3.5 0  1 -3.5 0  3.5 -1 0  3.5 1 0  -3.5 -1 0  -3.5 1 0  -1 -2.25 0  1 -2.25 0  2.25 -1 0  2.25 1 0  -1 2.25 0  1 2.25 0  -1 4.75 0  1 4.75 0  -4.75 -1 0  -4.75 1 0  -2.25 1 0  -2.25 -1 0  1 -4.75 0  -1 -4.75 0  4.75 1 0  4.75 -1 0  0 0 0  -2.875 0 0  -1.625 0 0  -4.125 0 0  -6 0 0  0 2.875 0  2.875 0 0  0 6 0  1.625 0 0  0 -2.875 0  0 -1.625 0  0 1.625 0  0 4.125 0  0 -6 0  0 -4.125 0  4.125 0 0  6 0 0  -0.109375 5.0625 0  -5.0625 -0.109375 0  -0.109375 -5.0625 0  5.0625 0.109375 0  0.8125 -0.1875 0  -0.1875 -0.8125 0  -0.8125 0.1875 0  -0.1875 0.8125 0  1 5.375 0  -5.375 1 0  1 -5.375 0  5.375 -1 0  0.53515625 0.46484375 0  -5.375 -1 0  -1 5.375 0  -1 -5.375 0  -0.5 -6 0  5.375 1 0  6 0.5 0  3.5 0.3046875 0  3.43125 -0.34765625 0  2.875 -1 0  4.125 1 0  0.3046875 3.5 0  -0.34765625 3.56875 0  -1 4.125 0  1 4.125 0  -0.3046875 2.25 0  0.34765625 2.18125 0  1 1.625 0  -1 -1.625 0  -0.3046875 -3.5 0  0.34765625 -3.56875 0  1 -4.125 0  0.3046875 -2.25 0  -0.34765625 -2.18125 0  -1 -4.125 0  -1 -2.875 0  1 -2.875 0  1 -1.625 0  1.625 -1 0  1.625 1 0  2.25 0.3046875 0  2.18125 -0.34765625 0  4.125 -1 0  2.875 1 0  1 2.875 0  -1 1.625 0  -1 2.875 0  -4.125 -1 0  -2.25 0.3046875 0  -2.31875 -0.34765625 0  -2.875 -1 0  -1.625 1 0  -4.125 1 0  -3.5 0.3046875 0  -3.56875 -0.34765625 0  -1.625 -1 0  -2.875 1 0  0.380626321794301 1.06853329530276 0  -1.110819327731092 -0.3739495798319328 0  0.3739495798319328 -1.110819327731092 0  1.151210293219304 0.3991939332620648 0  -0.5 -4.4375 0  0.5 -4.4375 0  5.481553398058253 -0.3712833737864077 0  0.5 4.4375 0  0.5 6 0  -0.522503783594538 -0.3265648647465863 0  -1.3125 0.5 0  -0.5 6 0  0.3265648647465863 -0.522503783594538 0  4.4375 0.5 0  4.4375 -0.5 0  0.5 -6 0  -6 -0.5 0  -5.481553398058253 0.3712833737864077 0  -4.55 -0.4296875 0  -4.4375 0.5 0  -0.5 4.4375 0  0.4792930825242718 5.026881067961165 0  0.4792930825242718 -5.026881067961165 0  -0.5 1.3125 0  1.3125 -0.5 0  -0.5 -1.3125 0  0.25 5.518539952962044 0  0.2125133872612723 -5.500076563152851 0  4.969341874373811 -0.5152550785163683 0  -4.969341874373811 0.5152550785163683 0  3.927189744345589 -0.4712876597840069 0  -5.554036458333333 -0.25 0  5.554036458333333 0.25 0  -0.4690710616438356 -5.462756849315069 0  -0.4690710616438356 5.462756849315069 0  -6 0.5 0  -1.59556436210848 -0.5 0  -3.058421751829955 -0.5 0  -0.5 2.731982421875 0  0.5 2.691578248170045 0  2.691578248170045 -0.5 0  1.641211254104555 0.5 0  0.5 -1.768017578125 0  0.5 -3.058421751829955 0  0.5 1.699267578125 0  3.018017578125 0.5 0  -0.5 -3.018017578125 0  -2.731982421875 0.5 0  6 -0.5 0  -4.050017120925308 -0.5006099332648871 0  -3.940668202764977 0.5371363767281105 0  3.940668202764977 0.5371363767281105 0  0.4517449476047904 3.958458083832335 0  -0.4517449476047904 -3.958458083832335 0  -1.809331797235023 0.5371363767281105 0  -0.4517449476047904 1.791541916167665 0  -0.0546875 4.59375 0  -5.006445312499999 -0.58984375 0  4.605643203883496 -0.04725424757281554 0  4.90625 0.5546875 0  -0.5546875 4.90625 0  0.04725424757281554 -4.605643203883496 0  -0.586116118210531 -4.995821561900013 0  -4.603710222472543 0.04846236095466061 0  -3.1875 0.65234375 0  0.6163907621110913 3.147502300973589 0  2.5625 0.65234375 0  0.6163907621110913 -2.602497699026411 0  -0.637456713551384 3.189259902731882 0  -0.637456713551384 -2.560740097268118 0  -0.34765625 0.34765625 0  -0.639453125 0.708203125 0  0.089630126953125 0.437286376953125 0  -0.4238281249999999 -1.746875 0  1.746875 -0.4238281249999999 0  -0.4238281249999999 4.003125 0  0.4238281249999999 -4.003125 0  -2.5625 -1 0  3.1875 -1 0  -0.09375 -1.21875 0  1.21875 -0.09375 0  0.4020305405760241 -0.1120343241705621 0  -0.6280191027904287 -0.7577505545748082 0  0.90625 -0.59375 0  -1.205500904741459 0.03633725387965409 0  -0.02129048848213058 1.202028574265107 0  -0.1120343241705621 -0.4020305405760241 0  1 1.3125 0  -2.003587563743074 -0.6442361556699288 0  0.6640077663259718 -1.395873598614549 0  5.6875 -1 0  0.6308138580859101 -5.592151086468728 0  -5.6875 -1 0  0.6568032075915271 5.612942566073222 0  5.616530031741774 0.6612875396772174 0  -5.6875 1 0  1.9375 1 0  -1.3125 -1 0  0.1524679547155687 -3.232579139388032 0  0.1524679547155687 2.517420860611968 0  -3.232579139388032 -0.1524679547155687 0  -1.932320553757026 -0.252759244693845 0  2.517420860611968 -0.1524679547155687 0  -0.04776045819569434 -2.464949198504599 0  -0.2420369079104247 3.187693796852321 0  3.751304711039982 -0.1203080877045035 0  -5.397601941771943 -0.609026059866711 0  1.3125 1 0  1.9375 -1 0  -0.6946315101963667 -2.018229242739021 0  -0.6946315101963667 3.731770757260979 0  1 -3.8125 0  2.014364435550335 0.6166648446293641 0  -1 5.6875 0  -1 -5.6875 0  -2.653476149871182 -0.5942957192996303 0  3.096523850128818 -0.5942957192996303 0  1 1.9375 0  -3.8125 -1 0  0.586975531244212 -0.7975955463807081 0  -0.2946248980953088 -4.743710873809568 0  2.625453376770019 0.2814788818359375 0  -3.124546623229981 0.2814788818359375 0  -0.1204856417894853 5.631800603217465 0  5.253862011026742 0.6581468962876398 0  -0.65234375 2.108701557941197 0  0.65234375 3.641298442058803 0  -0.65234375 -3.641298442058803 0  -0.25 -5.744880569758637 0  -4.4375 -1 0  -0.3166212631734941 -2.713595940002554 0  0.6591479224207506 0.1324305912687024 0  0.8660781906552419 0.6468634238104103 0  -0.9887189158197679 0.6452930723873549 0  0.3149351927204296 -1.460971774996065 0  -0.3572852727880474 -0.009629022788047503 0  2.09375 -0.6866724363772454 0  0.6866724363772454 -3.65625 0  0.6866724363772454 2.09375 0  -3.65625 -0.6866724363772454 0  -3.5371337890625 0.65234375 0  -0.1389584113023952 1.944025352615082 0  -2.151744288472698 0.65234375 0  -0.1389584113023951 -3.805974647384918 0  0.1389584113023951 3.805974647384918 0  -2.578772109813904 0.1857224367977529 0  3.171227890186096 0.1857224367977529 0  3.360315647536819 0.65234375 0  0.1857224367977528 -1.921227890186096 0  0.65234375 -2.110315647536819 0  1.894016528727564 0.2415406141485869 0  -3.738232421875 0 0  0.2516875549238616 3.139069895099618 0  -1.913724396854074 0.2011142179916434 0  0.1669456568161915 0.7843410671359501 0  -2.5625 1 0  -1 -3.1875 0  -1 2.5625 0  0.1736601499778735 4.857955663330752 0  -0.1893536587212888 2.577300639071919 0  -0.1893536587212888 -3.172699360928081 0  3.852271904453858 0.206603749322895 0  -3.8125 1 0  -0.1250095034621793 -5.421707592768541 0  3.8125 -1 0  3.617304217264373 -0.6578427703661498 0  0.2630176195580202 -2.636558318495885 0  0.2674330357770522 1.399517071108871 0  0.631726413079416 1.339254523727593 0  4.700571879807737 0.2813704945051134 0  0.7143844363649634 -3.319538455208831 0  2.430461544791169 -0.7143844363649634 0  0.7143844363649634 2.430461544791169 0  -3.319538455208831 -0.7143844363649634 0  5.687045771608623 -0.6520598572553891 0  -5.687045771608623 0.6520598572553891 0  -1.15625 -0.7048248829733235 0  3.438284572973296 -0.01860298867862281 0  -0.03021088078697859 3.451572359862192 0  2.216682837011589 -0.02159585961918548 0  -2.191580885932936 -0.03126387444658879 0  0.1857410764408683 1.895679405349457 0  3.103473238297955 -0.253270943723272 0  -2.646526761702045 -0.253270943723272 0  -2.333137350671861 -0.6791984914172315 0  -1 5.0625 0  -0.6971235589909319 5.213002544375844 0  0.01618705363819947 2.225929180591695 0  0.01618705363819947 -3.524070819408305 0  0.5690054882403073 0.7951310720450595 0  -0.5764940424412852 -3.329579265180942 0  -0.5764940424412852 2.420420734819058 0  3.8125 1 0  -5.372163860234628 0.04365139563106807 0  5.164108319316826 -0.225040894204947 0  -5.361952437854323 0.6744012088984681 0  -5.0625 1 0  5.286835586913878 -0.6616705837083201 0  -5.692815197359722 0.1186699900166531 0  5.663425996156958 -0.07763197815533956 0  -0.9219866027132193 -0.1143045829323572 0  -1.394333629759332 -0.2233077430199216 0  0.09322478991596644 -0.9616596638655462 0  5.0625 -1 0  -0.14412109375 -1.92169189453125 0  -4.28125 -0.7212148987671345 0  0.2649796277366407 0.1735162902120744 0  -4.907855692236596 0.1868230509619793 0  -1.9375 1 0  1 5.0625 0  0.6915124486819284 -5.272938212550202 0  0.683483242673902 5.284948082526911 0  2.5625 -1 0  -1 -3.8125 0  -1 1.9375 0  5.0625 1 0  -1 -1.9375 0  1 5.6875 0  1 -5.6875 0  -1.9375 -1 0  -1 -2.5625 0  -1 3.1875 0  1 -3.1875 0  1 -2.5625 0  1 2.5625 0  1 3.1875 0  -5.0625 -1 0  -1 -1.3125 0  1.3125 -1 0  -1 1.3125 0  -1 3.8125 0  -1 4.4375 0  -4.4375 1 0  4.4375 -1 0  4.4375 1 0  -1.3125 1 0  1 4.4375 0  1 -4.4375 0  -1 -5.0625 0  -1 -4.4375 0  -3.1875 1 0  2.5625 1 0  1 -1.9375 0  1 -1.3125 0  5.6875 1 0  1 3.8125 0  3.1875 1 0  -3.1875 -1 0  1 -5.0625 0  1.35138038998199 0.6675097549271188 0  -0.465625 0.986328125 0  1.435958105992309 0.2563920171199723 0  1.915914614192913 -0.145782394639918 0  -0.8764440609469509 -0.5746869313612541 0  5.355194559946098 0.01566259380337612 0  -5.69333042954964 -0.5242868300459975 0  1.78125 -0.7320750794491524 0  0.7320750794491525 -3.96875 0  -0.3959075548864684 5.166422468926435 0  -4.770522389068053 -0.2123670725088856 0  -4.714160156249999 -0.69234375 0  -4.273484403713342 -0.278160994327167 0  0.9642590244517505 0.08196089404241463 0  0.3500261717645397 -4.727285205957206 0  0.6740868006020392 -4.765147848348443 0  0.6797550207247084 -1.089747806381148 0  -5.186479934354063 0.3046329157552757 0  -5.263288238215326 -0.3369092276308425 0  -2.433484016245305 0.5442571297016638 0  0.1707808983307866 -3.82363304980935 0  -0.1554012991031027 3.867535742674252 0  4.855508096805579 -0.2283975605264581 0  3.644517238097614 0.5646428152488787 0  0.05699603874439441 -0.6452791208413911 0  -0.3550018917972689 -0.5695324323732931 0  0.6
[...]
<PointData  Vectors="u"> 
<DataArray  type="Float64"  Name="u"  NumberOfComponents="3" format="ascii">0.0000000000000000e+00 0.0000000000000000e+00 0.0000000000000000e+00  0.0000000000000000e+00 0.0000000000000000e+00 0.0000000000000000e+00  0.0000000000000000e+00 0.0000000000000000e+00 0.0000000000000000e+00  0.0000000000000000e+00 0.0000000000000000e+00 0.0000000000000000e+00  0.0000000000000000e+00 0.0000000000000000e+00 0.0000000000000000e+00  0.0000000000000000e+00 0.0000000000000000e+00 0.0000000000000000e+00  0.0000000000000000e+00 0.0000000000000000e+00 0.0000000000000000e+00  0.0000000000000000e+00 0.0000000000000000e+00 0.0000000000000000e+00  0.0000000000000000e+00 0.0000000000000000e+00 0.0000000000000000e+00  0.0000000000000000e+00 0.0000000000000000e+00 0.0000000000000000e+00  0.0000000000000000e+00 0.0000000000000000e+00 0.0000000000000000e+00  0.0000000000000000e+00 0.0000000000000000e+00 0.0000000000000000e+00  0.0000000000000000e+00 0.0000000000000000e+00 0.0000000000000000e+00  0.0000000000000000e+00 0.0000000000000000e+00 0.0000000000000000e+00  0.0000000000000000e+00 0.0000000000000000e+00 0.0000000000000000e+00  0.0000000000000000e+00 0.0000000000000000e+00 0.0000000000000000e+00  0.0000000000000000e+00 0.0000000000000000e+00 0.0000000000000000e+00  0.0000000000000000e+00 0.0000000000000000e+00 0.0000000000000000e+00  0.0000000000000000e+00 0.0000000000000000e+00 0.0000000000000000e+00  0.0000000000000000e+00 0.0000000000000000e+00 0.0000000000000000e+00  0.0000000000000000e+00 0.0000000000000000e+00 0.0000000000000000e+00  0.0000000000000000e+00 0.0000000000000000e+00 0.0000000000000000e+00  0.0000000000000000e+00 0.0000000000000000e+00 0.0000000000000000e+00  0.0000000000000000e+00 0.0000000000000000e+00 0.0000000000000000e+00  0.0000000000000000e+00 0.0000000000000000e+00 0.0000000000000000e+00  0.0000000000000000e+00 0.0000000000000000e+00 0.0000000000000000e+00  0.0000000000000000e+00 0.0000000000000000e+00 0.0000000000000000e+00  0.0000000000000000e+00 0.0000000000000000e+00 0.0000000000000000e+00  0.0000000000000000e+00 0.0000000000000000e+00 0.0000000000000000e+00  0.0000000000000000e+00 0.0000000000000000e+00 0.0000000000000000e+00  0.0000000000000000e+00 0.0000000000000000e+00 0.0000000000000000e+00  0.0000000000000000e+00 0.0000000000000000e+00 0.0000000000000000e+00  0.0000000000000000e+00 0.0000000000000000e+00 0.0000000000000000e+00  0.0000000000000000e+00 0.0000000000000000e+00 0.0000000000000000e+00  0.0000000000000000e+00 0.0000000000000000e+00 0.0000000000000000e+00  0.0000000000000000e+00 0.0000000000000000e+00 0.0000000000000000e+00  -9.2007750402845888e-05 1.6760936255100522e-05 0.0000000000000000e+00  1.3838354519450022e-02 -3.6929165189151194e-06 0.0000000000000000e+00  1.3149652836277947e-02 4.5615331058696634e-05 0.0000000000000000e+00  1.3839884163062357e-02 -3.7137152276331209e-07 0.0000000000000000e+00  1.3859329077288140e-02 1.2625483915838360e-05 0.0000000000000000e+00  3.2503111895257447e-06 1.3805768004784979e-02 0.0000000000000000e+00  -1.3802741067416215e-02 1.7019644124556983e-05 0.0000000000000000e+00  1.2924479641148412e-05 1.3818913259944490e-02 0.0000000000000000e+00  -1.3173225361423834e-02 5.3278215738372452e-05 0.0000000000000000e+00  5.3153463195302085e-06 -1.3813359937150627e-02 0.0000000000000000e+00  -2.1007788214092015e-05 -1.3055941058975323e-02 0.0000000000000000e+00  1.6621458640019157e-05 1.3065063359059721e-02 0.0000000000000000e+00  1.5002537231564525e-05 1.3823376518149130e-02 0.0000000000000000e+00  1.5017721501332331e-05 -1.3812173149924669e-02 0.0000000000000000e+00  1.9260420563981849e-05 -1.3840844845003355e-02 0.0000000000000000e+00  -1.3848589376044327e-02 -2.5103041375591819e-06 0.0000000000000000e+00  -1.3829197649457572e-02 -1.3468377088877678e-05 0.0000000000000000e+00  -1.3814433547268143e-05 1.3851149227153576e-02 0.0000000000000000e+00  1.3807383958494120e-02 -1.1181094699812919e-05 0.0000000000000000e+00  -1.9738657779294303e-05 -1.3722461188102046e-02 0.0000000000000000e+00  -1.3770012287458886e-02 -1.4986301847838903e-05 0.0000000000000000e+00  -8.8844208126322016e-03 -1.8949716328243136e-03 0.0000000000000000e+00  1.7124348543147553e-03 -8.6480094479638430e-03 0.0000000000000000e+00  8.6163891545070707e-03 1.9375474339829377e-03 0.0000000000000000e+00  1.8565895658485773e-03 8.6546236778969592e-03 0.0000000000000000e+00  0.0000000000000000e+00 0.0000000000000000e+00 0.0000000000000000e+00  0.0000000000000000e+00 0.0000000000000000e+00 0.0000000000000000e+00  0.0000000000000000e+00 0.0000000000000000e+00 0.0000000000000000e+00  0.0000000000000000e+00 0.0000000000000000e+00 0.0000000000000000e+00  -6.1520276560949631e-03 5.0994148765016655e-03 0.0000000000000000e+00  0.0000000000000000e+00 0.0000000000000000e+00 0.0000000000000000e+00  0.0000000000000000e+00 0.0000000000000000e+00 0.0000000000000000e+00  0.0000000000000000e+00 0.0000000000000000e+00 0.0000000000000000e+00  2.8169564224786600e-05 -1.3210155723610045e-02 0.0000000000000000e+00  0.0000000000000000e+00 0.0000000000000000e+00 0.0000000000000000e+00  -1.3785524397997587e-02 -4.5250751917409798e-06 0.0000000000000000e+00  -1.3634368585601577e-02 2.4724003904152039e-05 0.0000000000000000e+00  -1.3588414473669944e-02 -6.4004112353580315e-06 0.0000000000000000e+00  0.0000000000000000e+00 0.0000000000000000e+00 0.0000000000000000e+00  0.0000000000000000e+00 0.0000000000000000e+00 0.0000000000000000e+00  6.9254638128843266e-06 1.3760031851797529e-02 0.0000000000000000e+00  -5.2259526248869533e-06 1.3737584364087667e-02 0.0000000000000000e+00  0.0000000000000000e+00 0.0000000000000000e+00 0.0000000000000000e+00  0.0000000000000000e+00 0.0000000000000000e+00 0.0000000000000000e+00  6.5733723430083256e-05 1.3596935618801650e-02 0.0000000000000000e+00  -1.1625662128819191e-04 1.3715430180510456e-02 0.0000000000000000e+00  0.0000000000000000e+00 0.0000000000000000e+00 0.0000000000000000e+00  0.0000000000000000e+00 0.0000000000000000e+00 0.0000000000000000e+00  2.6489719582866356e-05 -1.3675057309617513e-02 0.0000000000000000e+00  4.6513734461766247e-06 -1.3777595771797459e-02 0.0000000000000000e+00  0.0000000000000000e+00 0.0000000000000000e+00 0.0000000000000000e+00  -6.3763551685013447e-05 -1.3756553953196651e-02 0.0000000000000000e+00  1.3813013799916622e-04 -1.3661418631673531e-02 0.0000000000000000e+00  0.0000000000000000e+00 0.0000000000000000e+00 0.0000000000000000e+00  0.0000000000000000e+00 0.0000000000000000e+00 0.0000000000000000e+00  0.0000000000000000e+00 0.0000000000000000e+00 0.0000000000000000e+00  0.0000000000000000e+00 0.0000000000000000e+00 0.0000000000000000e+00  0.0000000000000000e+00 0.0000000000000000e+00 0.0000000000000000e+00  0.0000000000000000e+00 0.0000000000000000e+00 0.0000000000000000e+00  -1.3533490824188803e-02 1.1601222103810923e-04 0.0000000000000000e+00  -1.3707145477712733e-02 -9.7539465046034168e-05 0.0000000000000000e+00  0.0000000000000000e+00 0.0000000000000000e+00 0.0000000000000000e+00  0.0000000000000000e+00 0.0000000000000000e+00 0.0000000000000000e+00  0.0000000000000000e+00 0.0000000000000000e+00 0.0000000000000000e+00  0.0000000000000000e+00 0.0000000000000000e+00 0.0000000000000000e+00  0.0000000000000000e+00 0.0000000000000000e+00 0.0000000000000000e+00  0.0000000000000000e+00 0.0000000000000000e+00 0.0000000000000000e+00  1.3509009624137827e-02 1.3562996853417304e-04 0.0000000000000000e+00  1.3564137189693000e-02 -7.8861665611863996e-05 0.0000000000000000e+00  0.0000000000000000e+00 0.0000000000000000e+00 0.0000000000000000e+00  0.0000000000000000e+00 0.0000000000000000e+00 0.0000000000000000e+00  0.0000000000000000e+00 0.0000000000000000e+00 0.0000000000000000e+00  1.3553657350056385e-02 2.1891847385680079e-05 0.0000000000000000e+00  1.3794801765423104e-02 5.7369327056318684e-06 0.0000000000000000e+00  0.0000000000000000e+00 0.0000000000000000e+00 0.0000000000000000e+00  0.0000000000000000e+00 0.0000000000000000e+00 0.0000000000000000e+00  -2.5357542596682672e-03 1.1398263058545098e-02 0.0000000000000000e+00  1.1744853151521411e-02 -2.6399166070952300e-03 0.0000000000000000e+00  -2.3417968063157517e-03 -1.1924922638343950e-02 0.0000000000000000e+00  -1.2064201582928492e-02 2.3189769230733122e-03 0.0000000000000000e+00  2.3189080566928625e-05 -1.3114752752849543e-02 0.0000000000000000e+00  -5.5598872582255480e-06 -1.3722227142195283e-02 0.0000000000000000e+00  -1.3628604112109048e-02 -1.4781756497652583e-05 0.0000000000000000e+00  -1.2077811882393910e-06 1.3697062239387440e-02 0.0000000000000000e+00  3.4565953028607012e-05 1.3591091182461896e-02 0.0000000000000000e+00  5.8000002382928659e-03 -3.6176151764938528e-03 0.0000000000000000e+00  1.3119694361123937e-02 1.8859510579073398e-03 0.0000000000000000e+00  2.0646278733492225e-05 1.3185883622954336e-02 0.0000000000000000e+00  -3.3784341311075784e-03 -5.6991402836359690e-03 0.0000000000000000e+00  -1.3512618581280786e-02 1.9294425904659598e-05 0.0000000000000000e+00  -1.3723797954571093e-02 7.6541748460968006e-06 0.0000000000000000e+00  3.7847548653329581e-05 -1.3529823250957812e-02 0.0000000000000000e+00  1.3757678040421457e-02 9.8708000309440097e-06 0.0000000000000000e+00  1.3597672712561470e-02 1.9892317394944256e-05 0.0000000000000000e+00  1.3688314228897772e-02 4.3641900626328973e-06 0.0000000000000000e+00  1.2979136499052756e-02 -6.3444156913642818e-06 0.0000000000000000e+00  2.4038264964928459e-05 1.3575182050743172e-02 0.0000000000000000e+00  -2.1051899298424196e-05 1.3716941377532915e-02 0.0000000000000000e+00  -6.5177750233856450e-06 -1.3633863792469140e-02 0.0000000000000000e+00  2.1895107772316245e-03 1.3512038240645299e-02 0.0000000000000000e+00  -1.3201903609558727e-02 -2.0442161349817104e-03 0.0000000000000000e+00  1.8599935687746963e-03 -1.3157785328587027e-02 0.0000000000000000e+00  1.0618922170316821e-05 1.3774249688328377e-02 0.0000000000000000e+00  -4.9124305098555128e-06 -1.3849050301545323e-02 0.0000000000000000e+00  -1.3731816368684190e-02 -3.3469822318826741e-05 0.0000000000000000e+00  1.2990244106122172e-02 1.1421126399491842e-05 0.0000000000000000e+00  -1.3589742123009183e-02 -6.3676774309934711e-06 0.0000000000000000e+00  1.3667414291854601e-02 5.1595876709411049e-07 0.0000000000000000e+00  -1.3777592326064356e-02 -3.5184944202447105e-05 0.0000000000000000e+00  8.2612819553892403e-06 -1.3617255985987732e-02 0.0000000000000000e+00  2.0293773996891954e-06 1.3598571048608385e-02 0.0000000000000000e+00  1.3276583122571618e-02 4.1630966052156347e-05 0.0000000000000000e+00  1.3613234529923400e-02 -7.9192867267301734e-04 0.0000000000000000e+00  1.3653950797239897e-02 -3.2438768119106958e-06 0.0000000000000000e+00  1.2946254791039654e-05 1.3619988238210003e-02 0.0000000000000000e+00  -3.7936391372238407e-05 1.3564718622062042e-02 0.0000000000000000e+00  -1.3626497353531358e-02 -3.0848932299537762e-06 0.0000000000000000e+00  -1.3643480720301899e-02 8.1012744985624048e-04 0.0000000000000000e+00  -5.4227897561206259e-04 -1.3662799502473849e-02 0.0000000000000000e+00  9.4994638244950250e-06 -1.3561320083385219e-02 0.0000000000000000e+00  -5.9768337126883588e-04 1.3756331521746292e-02 0.0000000000000000e+00  -1.3714795830046395e-02 3.9557183846700133e-05 0.0000000000000000e+00  1.7458825636509127e-05 -1.3617131697220107e-02 0.0000000000000000e+00  1.3552640123774466e-02 1.3930190624530609e-06 0.0000000000000000e+00  -1.3116871973062650e-02 1.1515103728923164e-06 0.0000000000000000e+00  1.3723422851780746e-02 -2.7911595614079588e-06 0.0000000000000000e+00  1.3068119904458175e-02 -4.8881984231555748e-05 0.0000000000000000e+00  -1.3092231039563298e-02 -9.7094764388749849e-05 0.0000000000000000e+00  1.8801505455264966e-05 1.3594114704916142e-02 0.0000000000000000e+00  2.2051688272239887e-05 -1.3574741269423492e-02 0.0000000000000000e+00  1.3127947960909816e-02 4.1672672226049406e-04 0.0000000000000000e+00  4.6328192535895815e-04 1.3538293240013391e-02 0.0000000000000000e+00  1.8632862883584132e-05 1.3816404509006926e-02 0.0000000000000000e+00  1.3167997987853295e-02 -3.7462712724782373e-06 0.0000000000000000e+00  -1.3840535217189769e-02 -3.3263608175555804e-06 0.0000000000000000e+00  -1.1768525841905641e-02 2.7062780570518774e-05 0.0000000000000000e+00  1.3182720138262804e-05 1.1291552990462920e-02 0.0000000000000000e+00  -2.0823936875821495e-06 -1.3840609043582629e-02 0.0000000000000000e+00  -3.8078242604798213e-05 -1.1542750735846151e-02 0.0000000000000000e+00  1.3825899376523145e-02 -5.7089822730220604e-06 0.0000000000000000e+00  1.1298158520229230e-02 1.9426068017913896e-05 0.0000000000000000e+00  -6.4047155332091402e-06 1.1781860119408133e-02 0.0000000000000000e+00  -1.3346899753199106e-02 8.7521667265702752e-05 0.0000000000000000e+00  -1.7212460859608604e-05 -1.1768565670413171e-02 0.0000000000000000e+00  4.3292094042692170e-05 1.1699889229997268e-02 0.0000000000000000e+00  8.7592718409695360e-07 -1.1478874773329290e-02 0.0000000000000000e+00  3.7716037778039086e-03 3.6389726142545195e-03 0.0000000000000000e+00  7.0604401944915265e-03 8.2879166262476000e-03 0.0000000000000000e+00  -9.1330369517716677e-04 4.7365188352676123e-03 0.0000000000000000e+00  5.4438324655045145e-04 -1.3537143881868330e-02 0.0000000000000000e+00  -1.3520910735120770e-02 -4.8809551349415049e-04 0.0000000000000000e+00  -7.5094583971210448e-06 1.3578927651140150e-02 0.0000000000000000e+00  6.8576518280963836e-06 -1.3604474324236289e-02 0.0000000000000000e+00  0.0000000000000000e+00 0.0000000000000000e+00 0.0000000000000000e+00  0.0000000000000000e+00 0.0000000000000000e+00 0.0000000000000000e+00  6.2784854191338989e-04 -1.1637836124019479e-02 0.0000000000000000e+00  -1.1727796184503684e-02 -3.5089136892017971e-04 0.0000000000000000e+00  -4.4251778186199355e-03 -1.1275939575867810e-03 0.0000000000000000e+00  7.3867132235558523e-03 -9.4327239410066932e-03 0.0000000000000000e+00  -1.1568029493834987e-02 -5.8697090991026114e-03 0.0000000000000000e+00  1.1717738778108024e-02 3.6694356531107979e-04 0.0000000000000000e+00  4.9180678860048213e-05 1.1559905824908335e-02 0.0000000000000000e+00  1.1529239551531134e-03 -4.3853292431590037e-03 0.0000000000000000e+00  0.0000000000000000e+00 0.0000000000000000e+00 0.0000000000000000e+00  1.1856918166793401e-02 -1.9938398488879652e-04 0.0000000000000000e+00  -1.5991859026011647e-03 -1.3688472231047865e-02 0.0000000000000000e+00  0.0000000000000000e+00 0.0000000000000000e+00 0.0000000000000000e+00  4.5007353384749805e-05 -1.1739677748398918e-02 0.0000000000000000e+00  0.0000000000000000e+00 0.0000000000000000e+00 0.0000000000000000e+00  5.7523306931706103e-05 1.2039571238792292e-02 0.0000000000000000e+00  -1.2077753618068104e-02 -9.3379045419557426e-05 0.0000000000000000e+00  0.0000000000000000e+00 0.0000000000000000e+00 0.0000000000000000e+00  0.0000000000000000e+00 0.0000000000000000e+00 0.0000000000000000e+00  0.0000000000000000e+00 0.0000000000000000e+00 0.0000000000000000e+00  7.3677586399311776e-06 -1.3800507217486787e-02 0.0000000000000000e+00  -2.6093518905401994e-05 1.3770627758437213e-02 0.0000000000000000e+00  1.3826939743754690e-02 2.8576482621858084e-06 0.0000000000000000e+00  1.3592882186536016e-02 -2.2101778138450918e-04 0.0000000000000000e+00  -1.3766463072395140e-02 -1.4245442210394962e-05 0.0000000000000000e+00  1.1208963862026661e-05 -1.3777558891569668e-02 0.0000000000000000e+00  1.3197747347158353e-05 1.3714277289313560e-02 0.0000000000000000e+00  -1.3829092238121695e-02 2.5507855692182447e-06 0.0000000000000000e+00  1.1442071776798370e-02 1.6872163023229368e-06 0.0000000000000000e+00  0.0000000000000000e+00 0.0000000000000000e+00 0.0000000000000000e+00  0.0000000000000000e+00 0.0000000000000000e+00 0.0000000000000000e+00  2.8784428853768907e-04 -1.2008965992697592e-02 0.0000000000000000e+00  -5.9319891092262925e-05 1.1973189468706485e-02 0.0000000000000000e+00  0.0000000000000000e+00 0.0000000000000000e+00 0.0000000000000000e+00  -1.3221659465495274e-02 1.9269989422342581e-04 0.0000000000000000e+00  0.0000000000000000e+00 0.0000000000000000e+00 0.0000000000000000e+00  0.0000000000000000e+00 0.0000000000000000e+00 0.0000000000000000e+00  1.3324396187290827e-02 2.9591096370118149e-05 0.0000000000000000e+00  -1.3237736187323077e-02 -1.6120820037893975e-05 0.0000000000000000e+00  0.0000000000000000e+00 0.0000000000000000e+00 0.0000000000000000e+00  0.0000000000000000e+00 0.0000000000000000e+00 0.0000000000000000e+00  -6.4123201237952327e-03 -9.9329133044970021e-03 0.0000000000000000e+00  -6.5933193895851346e-06 -1.3576638510106685e-02 0.0000000000000000e+00  -1.3658909180645048e-02 4.9879885956720023e-05 0.0000000000000000e+00  1.3746089220462668e-02 1.9169419544870323e-06 0.0000000000000000e+00  1.0746140909130864e-05 1.3828004247209699e-02 0.0000000000000000e+00  -1.1980158781123591e-02 -6.1824275410329060e-05 0.0000000000000000e+00  9.0419979883273266e-05 1.1783036320630999e-02 0.0000000000000000e+00  -2.5247406707906494e-06 1.1817275960749251e-02 0.0000000000000000e+00  3.8074326176489953e-05 -1.1757873004320896e-02 0.0000000000000000e+00  1.3669336755897306e-05 -1.3656937613049159e-02 0.0000000000000000e+00  0.0000000000000000e+00 0.0000000000000000e+00 0.0000000000000000e+00  3.4575867805500607e-06 -1.3608998225480520e-02 0.0000000000000000e+00  -7.0066094854274400e-03 1.4529419109901263e-03 0.0000000000000000e+00  -1.0636668916793251e-02 7.1420479555166757e-03 0.0000000000000000e+00  1.2303934647982767e-02 5.7414277874098495e-03 0.0000000000000000e+00  -1.0351588303729349e-03 -1.2962322713053519e-02 0.0000000000000000e+00  3.7907404197776522e-03 1.0897373328282917e-04 0.0000000000000000e+00  -1.2164529498726304e-02 -1.3375739735079037e-04 0.0000000000000000e+00  3.3919821709518526e-06 -1.2194680058481830e-02 0.0000000000000000e+00  -1.4138163090575325e-04 1.2161316302467352e-02 0.0000000000000000e+00  1.2021572414178930e-02 1.2980623802134601e-05 0.0000000000000000e+00  1.1948007265198577e-02 -6.7785666413940950e-06 0.0000000000000000e+00  1.1565330492054717e-04 1.3603060526750430e-02 0.0000000000000000e+00  1.1934259596542053e-02 2.3305665438039195e-04 0.0000000000000000e+00  2.0290758149019683e-05 -1.3810776433038602e-02 0.0000000000000000e+00  1.2593203065575979e-05 1.3820409337827851e-02 0.0000000000000000e+00  1.3733644464753982e-02 2.1901511454257197e-05 0.0000000000000000e+00  -1.3813535043289336e-02 2.7008029922714798e-05 0.0000000000000000e+00  -1.1622090623434606e-02 9.0241701455248086e-05 0.0000000000000000e+00  -1.1240769419517153e-04 -1.3595193726785477e-02 0.0000000000000000e+00  -1.1750753350833522e-04 -1.1523143037918605e-02 0.0000000000000000e+00  -1.3567956070150343e-02 2.8698513621971158e-04 0.0000000000000000e+00  1.3832921769076785e-02 1.0887412590660707e-05 0.0000000000000000e+00  2.7728905599293852e-06 1.3776409045809715e-02 0.0000000000000000e+00  1.3583439892186914e-02 2.3463774300720402e-04 0.0000000000000000e+00  -1.5632709251765028e-03 8.4441368157395277e-03 0.0000000000000000e+00  0.0000000000000000e+00 0.0000000000000000e+00 0.0000000000000000e+00  0.0000000000000000e+00 0.0000000000000000e+00 0.0000000000000000e+00  0.0000000000000000e+00 0.0000000000000000e+00 0.0000000000000000e+00  -5.3922889299113829e-06 1.3837890509290626e-02 0.0000000000000000e+00  1.4201439880183141e-05 1.3761303559898685e-02 0.0000000000000000e+00  1.5080579509747582e-05 -1.3783055451583702e-02 0.0000000000000000e+00  -1.3674911977482338e-02 -8.9561942663102835e-06 0.0000000000000000e+00  0.0000000000000000e+00 0.0000000000000000e+00 0.0000000000000000e+00  -3.3598625299187522e-06 -1.3806830478114002e-02 0.0000000000000000e+00  0.0000000000000000e+00 0.0000000000000000e+00 0.0000000000000000e+00  -1.1658138750408888e-02 -1.7986643055122115e-05 0.0000000000000000e+00  -2.4993972405961341e-05 -1.3756648267977173e-02 0.0000000000000000e+00  -1.1545277872583681e-03 1.2640107778421596e-02 0.0000000000000000e+00  -2.0076042234910608e-03 1.3515662884965902e-02 0.0000000000000000e+00  -1.3802585519870890e-02 2.1332366147502165e-06 0