<?xml version="1.0"?>
<VTKFile type="UnstructuredGrid"  version="0.1"  >
<UnstructuredGrid>
<Piece  NumberOfPoints="778" NumberOfCells="1401">
<Points>
<DataArray  type="Float64"  NumberOfComponents="3"  format="ascii">1 -1 0  6 -1 0  6 1 0  1 1 0  1 6 0  -1 6 0  -1 1 0  -6 1 0  -6 -1 0  -1 -1 0  -1 -6 0  1 -6 0  1 3.5 0  -1 3.5 0  -1 -3.5 0  1 -3.5 0  3.5 -1 0  3.5 1 0  -3.5 -1 0  -3.5 1 0  -1 -2.25 0  1 -2.25 0  2.25 -1 0  2.25 1 0  -1 2.25 0  1 2.25 0  -1 4.75 0  1 4.75 0  -4.75 -1 0  -4.75 1 0  -2.25 1 0  -2.25 -1 0  1 -4.75 0  -1 -4.75 0  4.75 1 0  4.75 -1 0  0 0 0  -2.875 0 0  -1.625 0 0  -4.125 0 0  -6 0 0  0 2.875 0  2.875 0 0  0 6 0  1.625 0 0  0 -2.875 0  0 -1.625 0  0 1.625 0  0 4.125 0  0 -6 0  0 -4.125 0  4.125 0 0  6 0 0  -0.109375 5.0625 0  -5.0625 -0.109375 0  -0.109375 -5.0625 0  5.0625 0.109375 0  0.8125 -0.1875 0  -0.1875 -0.8125 0  -0.8125 0.1875 0  -0.1875 0.8125 0  1 5.375 0  -5.375 1 0  1 -5.375 0  5.375 -1 0  0.53515625 0.46484375 0  -5.375 -1 0  -1 5.375 0  -1 -5.375 0  -0.5 -6 0  5.375 1 0  6 0.5 0  3.5 0.3046875 0  3.43125 -0.34765625 0  2.875 -1 0  4.125 1 0  0.3046875 3.5 0  -0.34765625 3.56875 0  -1 4.125 0  1 4.125 0  -0.3046875 2.25 0  0.34765625 2.18125 0  1 1.625 0  -1 -1.625 0  -0.3046875 -3.5 0  0.34765625 -3.56875 0  1 -4.125 0  0.3046875 -2.25 0  -0.34765625 -2.18125 0  -1 -4.125 0  -1 -2.875 0  1 -2.875 0  1 -1.625 0  1.625 -1 0  1.625 1 0  2.25 0.3046875 0  2.18125 -0.34765625 0  4.125 -1 0  2.875 1 0  1 2.875 0  -1 1.625 0  -1 2.875 0  -4.125 -1 0  -2.25 0.3046875 0  -2.31875 -0.34765625 0  -2.875 -1 0  -1.625 1 0  -4.125 1 0  -3.5 0.3046875 0  -3.56875 -0.34765625 0  -1.625 -1 0  -2.875 1 0  0.380626321794301 1.06853329530276 0  -1.110819327731092 -0.3739495798319328 0  0.3739495798319328 -1.110819327731092 0  1.151210293219304 0.3991939332620648 0  -0.5 -4.4375 0  0.5 -4.4375 0  5.481553398058253 -0.3712833737864077 0  0.5 4.4375 0  0.5 6 0  -0.522503783594538 -0.3265648647465863 0  -1.3125 0.5 0  -0.5 6 0  0.3265648647465863 -0.522503783594538 0  4.4375 0.5 0  4.4375 -0.5 0  0.5 -6 0  -6 -0.5 0  -5.481553398058253 0.3712833737864077 0  -4.55 -0.4296875 0  -4.4375 0.5 0  -0.5 4.4375 0  0.4792930825242718 5.026881067961165 0  0.4792930825242718 -5.026881067961165 0  -0.5 1.3125 0  1.3125 -0.5 0  -0.5 -1.3125 0  0.25 5.518539952962044 0  0.2125133872612723 -5.500076563152851 0  4.969341874373811 -0.5152550785163683 0  -4.969341874373811 0.5152550785163683 0  3.927189744345589 -0.4712876597840069 0  -5.554036458333333 -0.25 0  5.554036458333333 0.25 0  -0.4690710616438356 -5.462756849315069 0  -0.4690710616438356 5.462756849315069 0  -6 0.5 0  -1.59556436210848 -0.5 0  -3.058421751829955 -0.5 0  -0.5 2.731982421875 0  0.5 2.691578248170045 0  2.691578248170045 -0.5 0  1.641211254104555 0.5 0  0.5 -1.768017578125 0  0.5 -3.058421751829955 0  0.5 1.699267578125 0  3.018017578125 0.5 0  -0.5 -3.018017578125 0  -2.731982421875 0.5 0  6 -0.5 0  -4.050017120925308 -0.5006099332648871 0  -3.940668202764977 0.5371363767281105 0  3.940668202764977 0.5371363767281105 0  0.4517449476047904 3.958458083832335 0  -0.4517449476047904 -3.958458083832335 0  -1.809331797235023 0.5371363767281105 0  -0.4517449476047904 1.791541916167665 0  -0.0546875 4.59375 0  -5.006445312499999 -0.58984375 0  4.605643203883496 -0.04725424757281554 0  4.90625 0.5546875 0  -0.5546875 4.90625 0  0.04725424757281554 -4.605643203883496 0  -0.586116118210531 -4.995821561900013 0  -4.603710222472543 0.04846236095466061 0  -3.1875 0.65234375 0  0.6163907621110913 3.147502300973589 0  2.5625 0.65234375 0  0.6163907621110913 -2.602497699026411 0  -0.637456713551384 3.189259902731882 0  -0.637456713551384 -2.560740097268118 0  -0.34765625 0.34765625 0  -0.639453125 0.708203125 0  0.089630126953125 0.437286376953125 0  -0.4238281249999999 -1.746875 0  1.746875 -0.4238281249999999 0  -0.4238281249999999 4.003125 0  0.4238281249999999 -4.003125 0  -2.5625 -1 0  3.1875 -1 0  -0.09375 -1.21875 0  1.21875 -0.09375 0  0.4020305405760241 -0.1120343241705621 0  -0.6280191027904287 -0.7577505545748082 0  0.90625 -0.59375 0  -1.205500904741459 0.03633725387965409 0  -0.02129048848213058 1.202028574265107 0  -0.1120343241705621 -0.4020305405760241 0  1 1.3125 0  -2.003587563743074 -0.6442361556699288 0  0.6640077663259718 -1.395873598614549 0  5.6875 -1 0  0.6308138580859101 -5.592151086468728 0  -5.6875 -1 0  0.6568032075915271 5.612942566073222 0  5.616530031741774 0.6612875396772174 0  -5.6875 1 0  1.9375 1 0  -1.3125 -1 0  0.1524679547155687 -3.232579139388032 0  0.1524679547155687 2.517420860611968 0  -3.232579139388032 -0.1524679547155687 0  -1.932320553757026 -0.252759244693845 0  2.517420860611968 -0.1524679547155687 0  -0.04776045819569434 -2.464949198504599 0  -0.2420369079104247 3.187693796852321 0  3.751304711039982 -0.1203080877045035 0  -5.397601941771943 -0.609026059866711 0  1.3125 1 0  1.9375 -1 0  -0.6946315101963667 -2.018229242739021 0  -0.6946315101963667 3.731770757260979 0  1 -3.8125 0  2.014364435550335 0.6166648446293641 0  -1 5.6875 0  -1 -5.6875 0  -2.653476149871182 -0.5942957192996303 0  3.096523850128818 -0.5942957192996303 0  1 1.9375 0  -3.8125 -1 0  0.586975531244212 -0.7975955463807081 0  -0.2946248980953088 -4.743710873809568 0  2.625453376770019 0.2814788818359375 0  -3.124546623229981 0.2814788818359375 0  -0.1204856417894853 5.631800603217465 0  5.253862011026742 0.6581468962876398 0  -0.65234375 2.108701557941197 0  0.65234375 3.641298442058803 0  -0.65234375 -3.641298442058803 0  -0.25 -5.744880569758637 0  -4.4375 -1 0  -0.3166212631734941 -2.713595940002554 0  0.6591479224207506 0.1324305912687024 0  0.8660781906552419 0.6468634238104103 0  -0.9887189158197679 0.6452930723873549 0  0.3149351927204296 -1.460971774996065 0  -0.3572852727880474 -0.009629022788047503 0  2.09375 -0.6866724363772454 0  0.6866724363772454 -3.65625 0  0.6866724363772454 2.09375 0  -3.65625 -0.6866724363772454 0  -3.5371337890625 0.65234375 0  -0.1389584113023952 1.944025352615082 0  -2.151744288472698 0.65234375 0  -0.1389584113023951 -3.805974647384918 0  0.1389584113023951 3.805974647384918 0  -2.578772109813904 0.1857224367977529 0  3.171227890186096 0.1857224367977529 0  3.360315647536819 0.65234375 0  0.1857224367977528 -1.921227890186096 0  0.65234375 -2.110315647536819 0  1.894016528727564 0.2415406141485869 0  -3.738232421875 0 0  0.2516875549238616 3.139069895099618 0  -1.913724396854074 0.2011142179916434 0  0.1669456568161915 0.7843410671359501 0  -2.5625 1 0  -1 -3.1875 0  -1 2.5625 0  0.1736601499778735 4.857955663330752 0  -0.1893536587212888 2.577300639071919 0  -0.1893536587212888 -3.172699360928081 0  3.852271904453858 0.206603749322895 0  -3.8125 1 0  -0.1250095034621793 -5.421707592768541 0  3.8125 -1 0  3.617304217264373 -0.6578427703661498 0  0.2630176195580202 -2.636558318495885 0  0.2674330357770522 1.399517071108871 0  0.631726413079416 1.339254523727593 0  4.700571879807737 0.2813704945051134 0  0.7143844363649634 -3.319538455208831 0  2.430461544791169 -0.7143844363649634 0  0.7143844363649634 2.430461544791169 0  -3.319538455208831 -0.7143844363649634 0  5.687045771608623 -0.6520598572553891 0  -5.687045771608623 0.6520598572553891 0  -1.15625 -0.7048248829733235 0  3.438284572973296 -0.01860298867862281 0  -0.03021088078697859 3.451572359862192 0  2.216682837011589 -0.02159585961918548 0  -2.191580885932936 -0.03126387444658879 0  0.1857410764408683 1.895679405349457 0  3.103473238297955 -0.253270943723272 0  -2.646526761702045 -0.253270943723272 0  -2.333137350671861 -0.6791984914172315 0  -1 5.0625 0  -0.6971235589909319 5.213002544375844 0  0.01618705363819947 2.225929180591695 0  0.01618705363819947 -3.524070819408305 0  0.5690054882403073 0.7951310720450595 0  -0.5764940424412852 -3.329579265180942 0  -0.5764940424412852 2.420420734819058 0  3.8125 1 0  -5.372163860234628 0.04365139563106807 0  5.164108319316826 -0.225040894204947 0  -5.361952437854323 0.6744012088984681 0  -5.0625 1 0  5.286835586913878 -0.6616705837083201 0  -5.692815197359722 0.1186699900166531 0  5.663425996156958 -0.07763197815533956 0  -0.9219866027132193 -0.1143045829323572 0  -1.394333629759332 -0.2233077430199216 0  0.09322478991596644 -0.9616596638655462 0  5.0625 -1 0  -0.14412109375 -1.92169189453125 0  -4.28125 -0.7212148987671345 0  0.2649796277366407 0.1735162902120744 0  -4.907855692236596 0.1868230509619793 0  -1.9375 1 0  1 5.0625 0  0.6915124486819284 -5.272938212550202 0  0.683483242673902 5.284948082526911 0  2.5625 -1 0  -1 -3.8125 0  -1 1.9375 0  5.0625 1 0  -1 -1.9375 0  1 5.6875 0  1 -5.6875 0  -1.9375 -1 0  -1 -2.5625 0  -1 3.1875 0  1 -3.1875 0  1 -2.5625 0  1 2.5625 0  1 3.1875 0  -5.0625 -1 0  -1 -1.3125 0  1.3125 -1 0  -1 1.3125 0  -1 3.8125 0  -1 4.4375 0  -4.4375 1 0  4.4375 -1 0  4.4375 1 0  -1.3125 1 0  1 4.4375 0  1 -4.4375 0  -1 -5.0625 0  -1 -4.4375 0  -3.1875 1 0  2.5625 1 0  1 -1.9375 0  1 -1.3125 0  5.6875 1 0  1 3.8125 0  3.1875 1 0  -3.1875 -1 0  1 -5.0625 0  1.35138038998199 0.6675097549271188 0  -0.465625 0.986328125 0  1.435958105992309 0.2563920171199723 0  1.915914614192913 -0.145782394639918 0  -0.8764440609469509 -0.5746869313612541 0  5.355194559946098 0.01566259380337612 0  -5.69333042954964 -0.5242868300459975 0  1.78125 -0.7320750794491524 0  0.7320750794491525 -3.96875 0  -0.3959075548864684 5.166422468926435 0  -4.770522389068053 -0.2123670725088856 0  -4.714160156249999 -0.69234375 0  -4.273484403713342 -0.278160994327167 0  0.9642590244517505 0.08196089404241463 0  0.3500261717645397 -4.727285205957206 0  0.6740868006020392 -4.765147848348443 0  0.6797550207247084 -1.089747806381148 0  -5.186479934354063 0.3046329157552757 0  -5.263288238215326 -0.3369092276308425 0  -2.433484016245305 0.5442571297016638 0  0.1707808983307866 -3.82363304980935 0  -0.1554012991031027 3.867535742674252 0  4.855508096805579 -0.2283975605264581 0  3.644517238097614 0.5646428152488787 0  0.05699603874439441 -0.6452791208413911 0  -0.3550018917972689 -0.5695324323732931 0  0.6
[...]
<PointData  Vectors="u"> 
<DataArray  type="Float64"  Name="u"  NumberOfComponents="3" format="ascii">0.0000000000000000e+00 0.0000000000000000e+00 0.0000000000000000e+00  0.0000000000000000e+00 0.0000000000000000e+00 0.0000000000000000e+00  0.0000000000000000e+00 0.0000000000000000e+00 0.0000000000000000e+00  0.0000000000000000e+00 0.0000000000000000e+00 0.0000000000000000e+00  0.0000000000000000e+00 0.0000000000000000e+00 0.0000000000000000e+00  0.0000000000000000e+00 0.0000000000000000e+00 0.0000000000000000e+00  0.0000000000000000e+00 0.0000000000000000e+00 0.0000000000000000e+00  0.0000000000000000e+00 0.0000000000000000e+00 0.0000000000000000e+00  0.0000000000000000e+00 0.0000000000000000e+00 0.0000000000000000e+00  0.0000000000000000e+00 0.0000000000000000e+00 0.0000000000000000e+00  0.0000000000000000e+00 0.0000000000000000e+00 0.0000000000000000e+00  0.0000000000000000e+00 0.0000000000000000e+00 0.0000000000000000e+00  0.0000000000000000e+00 0.0000000000000000e+00 0.0000000000000000e+00  0.0000000000000000e+00 0.0000000000000000e+00 0.0000000000000000e+00  0.0000000000000000e+00 0.0000000000000000e+00 0.0000000000000000e+00  0.0000000000000000e+00 0.0000000000000000e+00 0.0000000000000000e+00  0.0000000000000000e+00 0.0000000000000000e+00 0.0000000000000000e+00  0.0000000000000000e+00 0.0000000000000000e+00 0.0000000000000000e+00  0.0000000000000000e+00 0.0000000000000000e+00 0.0000000000000000e+00  0.0000000000000000e+00 0.0000000000000000e+00 0.0000000000000000e+00  0.0000000000000000e+00 0.0000000000000000e+00 0.0000000000000000e+00  0.0000000000000000e+00 0.0000000000000000e+00 0.0000000000000000e+00  0.0000000000000000e+00 0.0000000000000000e+00 0.0000000000000000e+00  0.0000000000000000e+00 0.0000000000000000e+00 0.0000000000000000e+00  0.0000000000000000e+00 0.0000000000000000e+00 0.0000000000000000e+00  0.0000000000000000e+00 0.0000000000000000e+00 0.0000000000000000e+00  0.0000000000000000e+00 0.0000000000000000e+00 0.0000000000000000e+00  0.0000000000000000e+00 0.0000000000000000e+00 0.0000000000000000e+00  0.0000000000000000e+00 0.0000000000000000e+00 0.0000000000000000e+00  0.0000000000000000e+00 0.0000000000000000e+00 0.0000000000000000e+00  0.0000000000000000e+00 0.0000000000000000e+00 0.0000000000000000e+00  0.0000000000000000e+00 0.0000000000000000e+00 0.0000000000000000e+00  0.0000000000000000e+00 0.0000000000000000e+00 0.0000000000000000e+00  0.0000000000000000e+00 0.0000000000000000e+00 0.0000000000000000e+00  0.0000000000000000e+00 0.0000000000000000e+00 0.0000000000000000e+00  0.0000000000000000e+00 0.0000000000000000e+00 0.0000000000000000e+00  -1.9876612109886348e-04 9.2263765662536852e-05 0.0000000000000000e+00  4.5282909477962860e-02 -1.1035634101210581e-05 0.0000000000000000e+00  4.3213230687773718e-02 6.7559280370741267e-05 0.0000000000000000e+00  4.5333038711041683e-02 2.9083485273234219e-06 0.0000000000000000e+00  4.5375199204298930e-02 3.3590617939333887e-05 0.0000000000000000e+00  1.1182034128484197e-05 4.5262106480363766e-02 0.0000000000000000e+00  -4.5197334928750915e-02 4.1652951010974798e-05 0.0000000000000000e+00  3.5784785108200872e-05 4.5216118400975364e-02 0.0000000000000000e+00  -4.3303188536987371e-02 1.1307678115842939e-04 0.0000000000000000e+00  7.8156809147743859e-06 -4.5237371442895670e-02 0.0000000000000000e+00  -2.2747745263947063e-05 -4.3103172575944183e-02 0.0000000000000000e+00  3.8495168150103708e-05 4.3054100892718862e-02 0.0000000000000000e+00  3.5683818780240396e-05 4.5233496956100114e-02 0.0000000000000000e+00  3.6951342400297953e-05 -4.5232988565750101e-02 0.0000000000000000e+00  6.0245365369249243e-05 -4.5292057084459367e-02 0.0000000000000000e+00  -4.5344356623913229e-02 -1.3994623889304078e-05 0.0000000000000000e+00  -4.5300861596425268e-02 -4.2149859405334541e-05 0.0000000000000000e+00  -5.5048435336657177e-05 4.5346079396950914e-02 0.0000000000000000e+00  4.5279105790133271e-02 -5.5361913828528745e-05 0.0000000000000000e+00  -7.0843567343871291e-05 -4.5076093927906541e-02 0.0000000000000000e+00  -4.5191003943007950e-02 -5.4227763530371586e-05 0.0000000000000000e+00  -2.9267621241058250e-02 -6.1100308786142046e-03 0.0000000000000000e+00  5.8512773838199049e-03 -2.8783021360829820e-02 0.0000000000000000e+00  2.8692212748990642e-02 6.0444765230785779e-03 0.0000000000000000e+00  6.0915572820079067e-03 2.8830504662122437e-02 0.0000000000000000e+00  0.0000000000000000e+00 0.0000000000000000e+00 0.0000000000000000e+00  0.0000000000000000e+00 0.0000000000000000e+00 0.0000000000000000e+00  0.0000000000000000e+00 0.0000000000000000e+00 0.0000000000000000e+00  0.0000000000000000e+00 0.0000000000000000e+00 0.0000000000000000e+00  -2.0177955657570711e-02 1.6967567118190054e-02 0.0000000000000000e+00  0.0000000000000000e+00 0.0000000000000000e+00 0.0000000000000000e+00  0.0000000000000000e+00 0.0000000000000000e+00 0.0000000000000000e+00  0.0000000000000000e+00 0.0000000000000000e+00 0.0000000000000000e+00  6.1594068795408017e-05 -4.3158818615253294e-02 0.0000000000000000e+00  0.0000000000000000e+00 0.0000000000000000e+00 0.0000000000000000e+00  -4.5129944412070973e-02 -3.4768722357236864e-07 0.0000000000000000e+00  -4.5274634334326887e-02 5.8730429446652842e-05 0.0000000000000000e+00  -4.5163861212112875e-02 8.6719605913389504e-06 0.0000000000000000e+00  0.0000000000000000e+00 0.0000000000000000e+00 0.0000000000000000e+00  0.0000000000000000e+00 0.0000000000000000e+00 0.0000000000000000e+00  2.3840522461084347e-05 4.5204931223157906e-02 0.0000000000000000e+00  -7.3087099932557270e-06 4.5280549730205177e-02 0.0000000000000000e+00  0.0000000000000000e+00 0.0000000000000000e+00 0.0000000000000000e+00  0.0000000000000000e+00 0.0000000000000000e+00 0.0000000000000000e+00  2.1997290358803309e-04 4.4954809166241332e-02 0.0000000000000000e+00  -3.3860785623353096e-04 4.5064184123264926e-02 0.0000000000000000e+00  0.0000000000000000e+00 0.0000000000000000e+00 0.0000000000000000e+00  0.0000000000000000e+00 0.0000000000000000e+00 0.0000000000000000e+00  4.7928353645463438e-05 -4.5158312900885685e-02 0.0000000000000000e+00  1.5040173309867630e-05 -4.5244100574759756e-02 0.0000000000000000e+00  0.0000000000000000e+00 0.0000000000000000e+00 0.0000000000000000e+00  -1.9959031794461473e-04 -4.5065071234969750e-02 0.0000000000000000e+00  4.1663365800025673e-04 -4.5074200315591124e-02 0.0000000000000000e+00  0.0000000000000000e+00 0.0000000000000000e+00 0.0000000000000000e+00  0.0000000000000000e+00 0.0000000000000000e+00 0.0000000000000000e+00  0.0000000000000000e+00 0.0000000000000000e+00 0.0000000000000000e+00  0.0000000000000000e+00 0.0000000000000000e+00 0.0000000000000000e+00  0.0000000000000000e+00 0.0000000000000000e+00 0.0000000000000000e+00  0.0000000000000000e+00 0.0000000000000000e+00 0.0000000000000000e+00  -4.4917932837678531e-02 3.0683080204904476e-04 0.0000000000000000e+00  -4.5028896188707340e-02 -2.9918152526705715e-04 0.0000000000000000e+00  0.0000000000000000e+00 0.0000000000000000e+00 0.0000000000000000e+00  0.0000000000000000e+00 0.0000000000000000e+00 0.0000000000000000e+00  0.0000000000000000e+00 0.0000000000000000e+00 0.0000000000000000e+00  0.0000000000000000e+00 0.0000000000000000e+00 0.0000000000000000e+00  0.0000000000000000e+00 0.0000000000000000e+00 0.0000000000000000e+00  0.0000000000000000e+00 0.0000000000000000e+00 0.0000000000000000e+00  4.5019265108739576e-02 3.2857932807416778e-04 0.0000000000000000e+00  4.5110441302475941e-02 -2.7006418779650012e-04 0.0000000000000000e+00  0.0000000000000000e+00 0.0000000000000000e+00 0.0000000000000000e+00  0.0000000000000000e+00 0.0000000000000000e+00 0.0000000000000000e+00  0.0000000000000000e+00 0.0000000000000000e+00 0.0000000000000000e+00  4.5010416685549053e-02 7.6512831005019356e-05 0.0000000000000000e+00  4.5277292686535478e-02 2.1746951702026995e-05 0.0000000000000000e+00  0.0000000000000000e+00 0.0000000000000000e+00 0.0000000000000000e+00  0.0000000000000000e+00 0.0000000000000000e+00 0.0000000000000000e+00  -8.4154710340167797e-03 3.8018387674004395e-02 0.0000000000000000e+00  3.9169061507730196e-02 -8.3068395480259110e-03 0.0000000000000000e+00  -7.8469680939906861e-03 -3.9563376165660177e-02 0.0000000000000000e+00  -4.0019988796724144e-02 7.4250807522294954e-03 0.0000000000000000e+00  4.2605773702746933e-05 -4.3012081157718762e-02 0.0000000000000000e+00  -3.3450862545941071e-06 -4.5269094578850824e-02 0.0000000000000000e+00  -4.5229076116367499e-02 -5.8092961248493745e-05 0.0000000000000000e+00  2.2960939862885489e-06 4.5191448091559158e-02 0.0000000000000000e+00  4.9561061666718792e-05 4.5112973130929900e-02 0.0000000000000000e+00  1.9095655870703606e-02 -1.1946697289840881e-02 0.0000000000000000e+00  4.3540550011389421e-02 6.1570545814752216e-03 0.0000000000000000e+00  3.3483736149488086e-05 4.3139187603150816e-02 0.0000000000000000e+00  -1.1412757525324967e-02 -1.9017909901046296e-02 0.0000000000000000e+00  -4.5076809172349901e-02 -1.1957852137956229e-05 0.0000000000000000e+00  -4.5300186305422124e-02 9.2658988460589780e-06 0.0000000000000000e+00  3.8566270120477509e-05 -4.5085680728657339e-02 0.0000000000000000e+00  4.5368321239076762e-02 3.6061715734288490e-06 0.0000000000000000e+00  4.5146031618223552e-02 4.9683287327745328e-05 0.0000000000000000e+00  4.5331483195660500e-02 6.1106885126331169e-06 0.0000000000000000e+00  4.2823171504759998e-02 -1.4528029814203207e-05 0.0000000000000000e+00  2.7460526541785973e-05 4.5007410320003105e-02 0.0000000000000000e+00  -3.7921058626429298e-05 4.5293725355163392e-02 0.0000000000000000e+00  -2.5821057763699723e-05 -4.5206687357074442e-02 0.0000000000000000e+00  6.7212523139767661e-03 4.4822283051086230e-02 0.0000000000000000e+00  -4.4029690080638222e-02 -6.2666320189805934e-03 0.0000000000000000e+00  6.1341792714044874e-03 -4.3581723517712966e-02 0.0000000000000000e+00  3.0314251493543409e-05 4.5200245164927204e-02 0.0000000000000000e+00  -2.1842410031869459e-05 -4.5320007300291350e-02 0.0000000000000000e+00  -4.5347361046284861e-02 -6.2151909457064042e-05 0.0000000000000000e+00  4.3219097046944953e-02 9.3397563888947655e-06 0.0000000000000000e+00  -4.5175793771236580e-02 -2.4062412739654806e-05 0.0000000000000000e+00  4.5218187634325405e-02 -4.8341193081710671e-05 0.0000000000000000e+00  -4.5242630536919050e-02 -1.2305084515111905e-04 0.0000000000000000e+00  4.1279002801658779e-06 -4.5101232877544153e-02 0.0000000000000000e+00  9.5745362067262069e-06 4.5118761607409727e-02 0.0000000000000000e+00  4.3753276902209447e-02 1.0774034051536159e-04 0.0000000000000000e+00  4.5001300553673899e-02 -2.4098767382900775e-03 0.0000000000000000e+00  4.5263846664566135e-02 9.6921258631879323e-06 0.0000000000000000e+00  3.0617737900328620e-06 4.5212390689583236e-02 0.0000000000000000e+00  -8.8423344398289770e-05 4.5083168217665642e-02 0.0000000000000000e+00  -4.5200638731144049e-02 -2.1881862207877197e-05 0.0000000000000000e+00  -4.5069376244334089e-02 2.4029065638364717e-03 0.0000000000000000e+00  -1.4797461954496574e-03 -4.4921573255328473e-02 0.0000000000000000e+00  -1.8254351408413459e-06 -4.5121056761445323e-02 0.0000000000000000e+00  -1.6834355112792078e-03 4.5242057171640003e-02 0.0000000000000000e+00  -4.5149174641134555e-02 9.6190871592944017e-05 0.0000000000000000e+00  8.1568898557796301e-05 -4.5138303122713212e-02 0.0000000000000000e+00  4.5167207671964034e-02 4.1615238528250258e-06 0.0000000000000000e+00  -4.3574410616877862e-02 -3.4939753546705136e-05 0.0000000000000000e+00  4.5284840046277842e-02 -4.1485046191526371e-06 0.0000000000000000e+00  4.3344348450509315e-02 -1.5838376819434055e-04 0.0000000000000000e+00  -4.3345991990794898e-02 -3.3770903136569140e-04 0.0000000000000000e+00  3.2908241491785110e-05 4.5157145665174571e-02 0.0000000000000000e+00  7.1510828683390922e-05 -4.5143455113398907e-02 0.0000000000000000e+00  4.3141057657093682e-02 1.2596310843834100e-03 0.0000000000000000e+00  1.3554358112174566e-03 4.4633655052183523e-02 0.0000000000000000e+00  5.1438635839705429e-05 4.5261955185164168e-02 0.0000000000000000e+00  4.3734871008514052e-02 4.8855679534190554e-05 0.0000000000000000e+00  -4.5324052475697318e-02 -8.7837627110608504e-06 0.0000000000000000e+00  -4.0386337536995623e-02 7.6879449438086093e-05 0.0000000000000000e+00  5.5143233262047472e-05 3.9371144588499600e-02 0.0000000000000000e+00  -1.0090526642575518e-05 -4.5344525843186073e-02 0.0000000000000000e+00  -1.6788351146673986e-04 -3.9971880288458161e-02 0.0000000000000000e+00  4.5347946151375287e-02 -3.0465206660755753e-05 0.0000000000000000e+00  3.9869819249544906e-02 8.8816479249232596e-05 0.0000000000000000e+00  2.3298489406949177e-05 4.0723248263955687e-02 0.0000000000000000e+00  -4.4387407465003144e-02 2.5750291350785779e-04 0.0000000000000000e+00  -1.3221189133329114e-04 -4.0668560193824879e-02 0.0000000000000000e+00  1.8549009680811284e-04 4.1038544428502556e-02 0.0000000000000000e+00  -6.1321852279708116e-05 -4.0989502167117574e-02 0.0000000000000000e+00  1.2562709014462289e-02 1.2326211931304570e-02 0.0000000000000000e+00  2.3906890147236699e-02 2.7620077428880847e-02 0.0000000000000000e+00  -3.2107268789979041e-03 1.5756183027852567e-02 0.0000000000000000e+00  1.6259620959092177e-03 -4.4668003821536691e-02 0.0000000000000000e+00  -4.4546064567242534e-02 -1.4612472198780352e-03 0.0000000000000000e+00  -2.1967483625747175e-05 4.5076892805994292e-02 0.0000000000000000e+00  2.7306040773517859e-06 -4.5159167996376086e-02 0.0000000000000000e+00  0.0000000000000000e+00 0.0000000000000000e+00 0.0000000000000000e+00  0.0000000000000000e+00 0.0000000000000000e+00 0.0000000000000000e+00  2.0153174086361388e-03 -3.8655041907095553e-02 0.0000000000000000e+00  -3.8703699093773240e-02 -1.3299282807308244e-03 0.0000000000000000e+00  -1.4682185721028220e-02 -3.8165017303202478e-03 0.0000000000000000e+00  2.4066089715960481e-02 -3.1355555834229491e-02 0.0000000000000000e+00  -3.8989195246888701e-02 -1.8627551782415746e-02 0.0000000000000000e+00  3.8572360029025095e-02 1.0161698168342475e-03 0.0000000000000000e+00  3.4659734396596425e-04 3.8176369568336040e-02 0.0000000000000000e+00  3.9245059727881400e-03 -1.4536357116735756e-02 0.0000000000000000e+00  0.0000000000000000e+00 0.0000000000000000e+00 0.0000000000000000e+00  4.1318958131623000e-02 -6.5213320122045918e-04 0.0000000000000000e+00  -4.0497960618042089e-03 -4.5051086990969297e-02 0.0000000000000000e+00  0.0000000000000000e+00 0.0000000000000000e+00 0.0000000000000000e+00  1.7688571978555432e-04 -4.1204730118825493e-02 0.0000000000000000e+00  0.0000000000000000e+00 0.0000000000000000e+00 0.0000000000000000e+00  2.3640666827605002e-04 4.1837686749257960e-02 0.0000000000000000e+00  -4.1983530866781048e-02 -3.5851311636688707e-04 0.0000000000000000e+00  0.0000000000000000e+00 0.0000000000000000e+00 0.0000000000000000e+00  0.0000000000000000e+00 0.0000000000000000e+00 0.0000000000000000e+00  0.0000000000000000e+00 0.0000000000000000e+00 0.0000000000000000e+00  2.8550494707108729e-05 -4.5250165929686420e-02 0.0000000000000000e+00  -7.0370505111811405e-05 4.5169832333848220e-02 0.0000000000000000e+00  4.5295585399738943e-02 1.2276436995823912e-05 0.0000000000000000e+00  4.4703813949867235e-02 -6.5322040579530278e-04 0.0000000000000000e+00  -4.5133879758785050e-02 -3.6837953005593833e-05 0.0000000000000000e+00  3.0676579441843501e-05 -4.5183815025577376e-02 0.0000000000000000e+00  6.0584514542805080e-05 4.5216396402898658e-02 0.0000000000000000e+00  -4.5354396064312470e-02 7.7881958710311532e-06 0.0000000000000000e+00  4.0469346929419441e-02 2.1575398540038248e-06 0.0000000000000000e+00  0.0000000000000000e+00 0.0000000000000000e+00 0.0000000000000000e+00  0.0000000000000000e+00 0.0000000000000000e+00 0.0000000000000000e+00  8.6283162804166749e-04 -4.2120518008644477e-02 0.0000000000000000e+00  -2.2923463386274089e-04 4.2202430655643317e-02 0.0000000000000000e+00  0.0000000000000000e+00 0.0000000000000000e+00 0.0000000000000000e+00  -4.3983675763328157e-02 5.3950524934111581e-04 0.0000000000000000e+00  0.0000000000000000e+00 0.0000000000000000e+00 0.0000000000000000e+00  0.0000000000000000e+00 0.0000000000000000e+00 0.0000000000000000e+00  4.3958426420024302e-02 1.5400010072640164e-04 0.0000000000000000e+00  -4.3628703309284686e-02 -4.9785720684027719e-05 0.0000000000000000e+00  0.0000000000000000e+00 0.0000000000000000e+00 0.0000000000000000e+00  0.0000000000000000e+00 0.0000000000000000e+00 0.0000000000000000e+00  -2.1143087923974787e-02 -3.3208643765844176e-02 0.0000000000000000e+00  -6.0055184312339113e-05 -4.5172757120512663e-02 0.0000000000000000e+00  -4.5074100808153918e-02 1.1338663000773434e-04 0.0000000000000000e+00  4.5208922532209525e-02 -5.0683357772238445e-06 0.0000000000000000e+00  3.9727100275959642e-05 4.5284855343544213e-02 0.0000000000000000e+00  -4.2190750104072500e-02 -1.9690317764422166e-04 0.0000000000000000e+00  2.3573758017665810e-04 4.1859029638388758e-02 0.0000000000000000e+00  -7.2035717070702022e-05 4.1273909844851277e-02 0.0000000000000000e+00  1.3883653618405658e-04 -4.1566607308474994e-02 0.0000000000000000e+00  5.2176793566839977e-05 -4.5115119010854972e-02 0.0000000000000000e+00  0.0000000000000000e+00 0.0000000000000000e+00 0.0000000000000000e+00  5.1804948580407681e-06 -4.5097009046868336e-02 0.0000000000000000e+00  -2.3544030315108617e-02 4.6642147889151050e-03 0.0000000000000000e+00  -3.5288988402565578e-02 2.3668839470682938e-02 0.0000000000000000e+00  4.0991187803609039e-02 1.9022502846568715e-02 0.0000000000000000e+00  -3.0817245752286209e-03 -4.2682213322827456e-02 0.0000000000000000e+00  1.2744591425266598e-02 7.6269599566899600e-06 0.0000000000000000e+00  -4.2361698427739403e-02 -3.8587863740270373e-04 0.0000000000000000e+00  1.5427016908763780e-05 -4.2246830065395431e-02 0.0000000000000000e+00  -4.0701265412366506e-04 4.2332799476548208e-02 0.0000000000000000e+00  4.1955028128785758e-02 7.2006461290205511e-05 0.0000000000000000e+00  4.2242876774962149e-02 4.9515953358746124e-05 0.0000000000000000e+00  3.5649171514028077e-04 4.4654205813341577e-02 0.0000000000000000e+00  4.2566831682568050e-02 6.6897323616143980e-04 0.0000000000000000e+00  5.2692988639518975e-05 -4.5268808988098354e-02 0.0000000000000000e+00  3.7796753454905036e-05 4.5279799691211667e-02 0.0000000000000000e+00  4.5140057558760854e-02 3.2081832369071164e-05 0.0000000000000000e+00  -4.5235136387271939e-02 8.4968423133662999e-05 0.0000000000000000e+00  -4.1395484625342933e-02 3.6381167964166631e-04 0.0000000000000000e+00  -3.4862123233071318e-04 -4.4575430918699380e-02 0.0000000000000000e+00  -2.8618755508282538e-04 -4.1048212759831837e-02 0.0000000000000000e+00  -4.4604950041059986e-02 8.1109145367284680e-04 0.0000000000000000e+00  4.5316916458067617e-02 3.2669933210447220e-05 0.0000000000000000e+00  1.7476592334920140e-05 4.5257813482488682e-02 0.0000000000000000e+00  4.4600612318610906e-02 6.7752156174077851e-04 0.0000000000000000e+00  -5.3567050007677832e-03 2.8035928312327516e-02 0.0000000000000000e+00  0.0000000000000000e+00 0.0000000000000000e+00 0.0000000000000000e+00  0.0000000000000000e+00 0.0000000000000000e+00 0.0000000000000000e+00  0.0000000000000000e+00 0.0000000000000000e+00 0.0000000000000000e+00  -1.2749977172288962e-05 4.5295914645589359e-02 0.0000000000000000e+00  3.7779023686173457e-05 4.5122566683656357e-02 0.0000000000000000e+00  4.9347425955500967e-05 -4.5168504632803579e-02 0.0000000000000000e+00  -4.5147903541330345e-02 5.3566634370767617e-06 0.0000000000000000e+00  0.0000000000000000e+00 0.0000000000000000e+00 0.0000000000000000e+00  -1.8684800884073174e-05 -4.5255481207207911e-02 0.0000000000000000e+00  0.0000000000000000e+00 0.0000000000000000e+00 0.0000000000000000e+00  -4.0999022433014079e-02 -2.9884377523843439e-05 0.0000000000000000e+00  -7.2012517772174149e-05 -4.5193429793379938e-02 0.0000000000000000e+00  -3.4056284348453784e-03 4.1786411809741776e-02 0.0000000000000000e+00  -5.2922410417393928e-03 4.4050588748763664e-02 0.0000000000000000e+00  -4.5357365970856073e-02 6.1244699991537548e-06 0.0