<?xml version="1.0"?>
<VTKFile type="UnstructuredGrid"  version="0.1"  >
<UnstructuredGrid>
<Piece  NumberOfPoints="778" NumberOfCells="1401">
<Points>
<DataArray  type="Float64"  NumberOfComponents="3"  format="ascii">1 -1 0  6 -1 0  6 1 0  1 1 0  1 6 0  -1 6 0  -1 1 0  -6 1 0  -6 -1 0  -1 -1 0  -1 -6 0  1 -6 0  1 3.5 0  -1 3.5 0  -1 -3.5 0  1 -3.5 0  3.5 -1 0  3.5 1 0  -3.5 -1 0  -3.5 1 0  -1 -2.25 0  1 -2.25 0  2.25 -1 0  2.25 1 0  -1 2.25 0  1 2.25 0  -1 4.75 0  1 4.75 0  -4.75 -1 0  -4.75 1 0  -2.25 1 0  -2.25 -1 0  1 -4.75 0  -1 -4.75 0  4.75 1 0  4.75 -1 0  0 0 0  -2.875 0 0  -1.625 0 0  -4.125 0 0  -6 0 0  0 2.875 0  2.875 0 0  0 6 0  1.625 0 0  0 -2.875 0  0 -1.625 0  0 1.625 0  0 4.125 0  0 -6 0  0 -4.125 0  4.125 0 0  6 0 0  -0.109375 5.0625 0  -5.0625 -0.109375 0  -0.109375 -5.0625 0  5.0625 0.109375 0  0.8125 -0.1875 0  -0.1875 -0.8125 0  -0.8125 0.1875 0  -0.1875 0.8125 0  1 5.375 0  -5.375 1 0  1 -5.375 0  5.375 -1 0  0.53515625 0.46484375 0  -5.375 -1 0  -1 5.375 0  -1 -5.375 0  -0.5 -6 0  5.375 1 0  6 0.5 0  3.5 0.3046875 0  3.43125 -0.34765625 0  2.875 -1 0  4.125 1 0  0.3046875 3.5 0  -0.34765625 3.56875 0  -1 4.125 0  1 4.125 0  -0.3046875 2.25 0  0.34765625 2.18125 0  1 1.625 0  -1 -1.625 0  -0.3046875 -3.5 0  0.34765625 -3.56875 0  1 -4.125 0  0.3046875 -2.25 0  -0.34765625 -2.18125 0  -1 -4.125 0  -1 -2.875 0  1 -2.875 0  1 -1.625 0  1.625 -1 0  1.625 1 0  2.25 0.3046875 0  2.18125 -0.34765625 0  4.125 -1 0  2.875 1 0  1 2.875 0  -1 1.625 0  -1 2.875 0  -4.125 -1 0  -2.25 0.3046875 0  -2.31875 -0.34765625 0  -2.875 -1 0  -1.625 1 0  -4.125 1 0  -3.5 0.3046875 0  -3.56875 -0.34765625 0  -1.625 -1 0  -2.875 1 0  0.380626321794301 1.06853329530276 0  -1.110819327731092 -0.3739495798319328 0  0.3739495798319328 -1.110819327731092 0  1.151210293219304 0.3991939332620648 0  -0.5 -4.4375 0  0.5 -4.4375 0  5.481553398058253 -0.3712833737864077 0  0.5 4.4375 0  0.5 6 0  -0.522503783594538 -0.3265648647465863 0  -1.3125 0.5 0  -0.5 6 0  0.3265648647465863 -0.522503783594538 0  4.4375 0.5 0  4.4375 -0.5 0  0.5 -6 0  -6 -0.5 0  -5.481553398058253 0.3712833737864077 0  -4.55 -0.4296875 0  -4.4375 0.5 0  -0.5 4.4375 0  0.4792930825242718 5.026881067961165 0  0.4792930825242718 -5.026881067961165 0  -0.5 1.3125 0  1.3125 -0.5 0  -0.5 -1.3125 0  0.25 5.518539952962044 0  0.2125133872612723 -5.500076563152851 0  4.969341874373811 -0.5152550785163683 0  -4.969341874373811 0.5152550785163683 0  3.927189744345589 -0.4712876597840069 0  -5.554036458333333 -0.25 0  5.554036458333333 0.25 0  -0.4690710616438356 -5.462756849315069 0  -0.4690710616438356 5.462756849315069 0  -6 0.5 0  -1.59556436210848 -0.5 0  -3.058421751829955 -0.5 0  -0.5 2.731982421875 0  0.5 2.691578248170045 0  2.691578248170045 -0.5 0  1.641211254104555 0.5 0  0.5 -1.768017578125 0  0.5 -3.058421751829955 0  0.5 1.699267578125 0  3.018017578125 0.5 0  -0.5 -3.018017578125 0  -2.731982421875 0.5 0  6 -0.5 0  -4.050017120925308 -0.5006099332648871 0  -3.940668202764977 0.5371363767281105 0  3.940668202764977 0.5371363767281105 0  0.4517449476047904 3.958458083832335 0  -0.4517449476047904 -3.958458083832335 0  -1.809331797235023 0.5371363767281105 0  -0.4517449476047904 1.791541916167665 0  -0.0546875 4.59375 0  -5.006445312499999 -0.58984375 0  4.605643203883496 -0.04725424757281554 0  4.90625 0.5546875 0  -0.5546875 4.90625 0  0.04725424757281554 -4.605643203883496 0  -0.586116118210531 -4.995821561900013 0  -4.603710222472543 0.04846236095466061 0  -3.1875 0.65234375 0  0.6163907621110913 3.147502300973589 0  2.5625 0.65234375 0  0.6163907621110913 -2.602497699026411 0  -0.637456713551384 3.189259902731882 0  -0.637456713551384 -2.560740097268118 0  -0.34765625 0.34765625 0  -0.639453125 0.708203125 0  0.089630126953125 0.437286376953125 0  -0.4238281249999999 -1.746875 0  1.746875 -0.4238281249999999 0  -0.4238281249999999 4.003125 0  0.4238281249999999 -4.003125 0  -2.5625 -1 0  3.1875 -1 0  -0.09375 -1.21875 0  1.21875 -0.09375 0  0.4020305405760241 -0.1120343241705621 0  -0.6280191027904287 -0.7577505545748082 0  0.90625 -0.59375 0  -1.205500904741459 0.03633725387965409 0  -0.02129048848213058 1.202028574265107 0  -0.1120343241705621 -0.4020305405760241 0  1 1.3125 0  -2.003587563743074 -0.6442361556699288 0  0.6640077663259718 -1.395873598614549 0  5.6875 -1 0  0.6308138580859101 -5.592151086468728 0  -5.6875 -1 0  0.6568032075915271 5.612942566073222 0  5.616530031741774 0.6612875396772174 0  -5.6875 1 0  1.9375 1 0  -1.3125 -1 0  0.1524679547155687 -3.232579139388032 0  0.1524679547155687 2.517420860611968 0  -3.232579139388032 -0.1524679547155687 0  -1.932320553757026 -0.252759244693845 0  2.517420860611968 -0.1524679547155687 0  -0.04776045819569434 -2.464949198504599 0  -0.2420369079104247 3.187693796852321 0  3.751304711039982 -0.1203080877045035 0  -5.397601941771943 -0.609026059866711 0  1.3125 1 0  1.9375 -1 0  -0.6946315101963667 -2.018229242739021 0  -0.6946315101963667 3.731770757260979 0  1 -3.8125 0  2.014364435550335 0.6166648446293641 0  -1 5.6875 0  -1 -5.6875 0  -2.653476149871182 -0.5942957192996303 0  3.096523850128818 -0.5942957192996303 0  1 1.9375 0  -3.8125 -1 0  0.586975531244212 -0.7975955463807081 0  -0.2946248980953088 -4.743710873809568 0  2.625453376770019 0.2814788818359375 0  -3.124546623229981 0.2814788818359375 0  -0.1204856417894853 5.631800603217465 0  5.253862011026742 0.6581468962876398 0  -0.65234375 2.108701557941197 0  0.65234375 3.641298442058803 0  -0.65234375 -3.641298442058803 0  -0.25 -5.744880569758637 0  -4.4375 -1 0  -0.3166212631734941 -2.713595940002554 0  0.6591479224207506 0.1324305912687024 0  0.8660781906552419 0.6468634238104103 0  -0.9887189158197679 0.6452930723873549 0  0.3149351927204296 -1.460971774996065 0  -0.3572852727880474 -0.009629022788047503 0  2.09375 -0.6866724363772454 0  0.6866724363772454 -3.65625 0  0.6866724363772454 2.09375 0  -3.65625 -0.6866724363772454 0  -3.5371337890625 0.65234375 0  -0.1389584113023952 1.944025352615082 0  -2.151744288472698 0.65234375 0  -0.1389584113023951 -3.805974647384918 0  0.1389584113023951 3.805974647384918 0  -2.578772109813904 0.1857224367977529 0  3.171227890186096 0.1857224367977529 0  3.360315647536819 0.65234375 0  0.1857224367977528 -1.921227890186096 0  0.65234375 -2.110315647536819 0  1.894016528727564 0.2415406141485869 0  -3.738232421875 0 0  0.2516875549238616 3.139069895099618 0  -1.913724396854074 0.2011142179916434 0  0.1669456568161915 0.7843410671359501 0  -2.5625 1 0  -1 -3.1875 0  -1 2.5625 0  0.1736601499778735 4.857955663330752 0  -0.1893536587212888 2.577300639071919 0  -0.1893536587212888 -3.172699360928081 0  3.852271904453858 0.206603749322895 0  -3.8125 1 0  -0.1250095034621793 -5.421707592768541 0  3.8125 -1 0  3.617304217264373 -0.6578427703661498 0  0.2630176195580202 -2.636558318495885 0  0.2674330357770522 1.399517071108871 0  0.631726413079416 1.339254523727593 0  4.700571879807737 0.2813704945051134 0  0.7143844363649634 -3.319538455208831 0  2.430461544791169 -0.7143844363649634 0  0.7143844363649634 2.430461544791169 0  -3.319538455208831 -0.7143844363649634 0  5.687045771608623 -0.6520598572553891 0  -5.687045771608623 0.6520598572553891 0  -1.15625 -0.7048248829733235 0  3.438284572973296 -0.01860298867862281 0  -0.03021088078697859 3.451572359862192 0  2.216682837011589 -0.02159585961918548 0  -2.191580885932936 -0.03126387444658879 0  0.1857410764408683 1.895679405349457 0  3.103473238297955 -0.253270943723272 0  -2.646526761702045 -0.253270943723272 0  -2.333137350671861 -0.6791984914172315 0  -1 5.0625 0  -0.6971235589909319 5.213002544375844 0  0.01618705363819947 2.225929180591695 0  0.01618705363819947 -3.524070819408305 0  0.5690054882403073 0.7951310720450595 0  -0.5764940424412852 -3.329579265180942 0  -0.5764940424412852 2.420420734819058 0  3.8125 1 0  -5.372163860234628 0.04365139563106807 0  5.164108319316826 -0.225040894204947 0  -5.361952437854323 0.6744012088984681 0  -5.0625 1 0  5.286835586913878 -0.6616705837083201 0  -5.692815197359722 0.1186699900166531 0  5.663425996156958 -0.07763197815533956 0  -0.9219866027132193 -0.1143045829323572 0  -1.394333629759332 -0.2233077430199216 0  0.09322478991596644 -0.9616596638655462 0  5.0625 -1 0  -0.14412109375 -1.92169189453125 0  -4.28125 -0.7212148987671345 0  0.2649796277366407 0.1735162902120744 0  -4.907855692236596 0.1868230509619793 0  -1.9375 1 0  1 5.0625 0  0.6915124486819284 -5.272938212550202 0  0.683483242673902 5.284948082526911 0  2.5625 -1 0  -1 -3.8125 0  -1 1.9375 0  5.0625 1 0  -1 -1.9375 0  1 5.6875 0  1 -5.6875 0  -1.9375 -1 0  -1 -2.5625 0  -1 3.1875 0  1 -3.1875 0  1 -2.5625 0  1 2.5625 0  1 3.1875 0  -5.0625 -1 0  -1 -1.3125 0  1.3125 -1 0  -1 1.3125 0  -1 3.8125 0  -1 4.4375 0  -4.4375 1 0  4.4375 -1 0  4.4375 1 0  -1.3125 1 0  1 4.4375 0  1 -4.4375 0  -1 -5.0625 0  -1 -4.4375 0  -3.1875 1 0  2.5625 1 0  1 -1.9375 0  1 -1.3125 0  5.6875 1 0  1 3.8125 0  3.1875 1 0  -3.1875 -1 0  1 -5.0625 0  1.35138038998199 0.6675097549271188 0  -0.465625 0.986328125 0  1.435958105992309 0.2563920171199723 0  1.915914614192913 -0.145782394639918 0  -0.8764440609469509 -0.5746869313612541 0  5.355194559946098 0.01566259380337612 0  -5.69333042954964 -0.5242868300459975 0  1.78125 -0.7320750794491524 0  0.7320750794491525 -3.96875 0  -0.3959075548864684 5.166422468926435 0  -4.770522389068053 -0.2123670725088856 0  -4.714160156249999 -0.69234375 0  -4.273484403713342 -0.278160994327167 0  0.9642590244517505 0.08196089404241463 0  0.3500261717645397 -4.727285205957206 0  0.6740868006020392 -4.765147848348443 0  0.6797550207247084 -1.089747806381148 0  -5.186479934354063 0.3046329157552757 0  -5.263288238215326 -0.3369092276308425 0  -2.433484016245305 0.5442571297016638 0  0.1707808983307866 -3.82363304980935 0  -0.1554012991031027 3.867535742674252 0  4.855508096805579 -0.2283975605264581 0  3.644517238097614 0.5646428152488787 0  0.05699603874439441 -0.6452791208413911 0  -0.3550018917972689 -0.5695324323732931 0  0.6
[...]
<PointData  Vectors="u"> 
<DataArray  type="Float64"  Name="u"  NumberOfComponents="3" format="ascii">0.0000000000000000e+00 0.0000000000000000e+00 0.0000000000000000e+00  0.0000000000000000e+00 0.0000000000000000e+00 0.0000000000000000e+00  0.0000000000000000e+00 0.0000000000000000e+00 0.0000000000000000e+00  0.0000000000000000e+00 0.0000000000000000e+00 0.0000000000000000e+00  0.0000000000000000e+00 0.0000000000000000e+00 0.0000000000000000e+00  0.0000000000000000e+00 0.0000000000000000e+00 0.0000000000000000e+00  0.0000000000000000e+00 0.0000000000000000e+00 0.0000000000000000e+00  0.0000000000000000e+00 0.0000000000000000e+00 0.0000000000000000e+00  0.0000000000000000e+00 0.0000000000000000e+00 0.0000000000000000e+00  0.0000000000000000e+00 0.0000000000000000e+00 0.0000000000000000e+00  0.0000000000000000e+00 0.0000000000000000e+00 0.0000000000000000e+00  0.0000000000000000e+00 0.0000000000000000e+00 0.0000000000000000e+00  0.0000000000000000e+00 0.0000000000000000e+00 0.0000000000000000e+00  0.0000000000000000e+00 0.0000000000000000e+00 0.0000000000000000e+00  0.0000000000000000e+00 0.0000000000000000e+00 0.0000000000000000e+00  0.0000000000000000e+00 0.0000000000000000e+00 0.0000000000000000e+00  0.0000000000000000e+00 0.0000000000000000e+00 0.0000000000000000e+00  0.0000000000000000e+00 0.0000000000000000e+00 0.0000000000000000e+00  0.0000000000000000e+00 0.0000000000000000e+00 0.0000000000000000e+00  0.0000000000000000e+00 0.0000000000000000e+00 0.0000000000000000e+00  0.0000000000000000e+00 0.0000000000000000e+00 0.0000000000000000e+00  0.0000000000000000e+00 0.0000000000000000e+00 0.0000000000000000e+00  0.0000000000000000e+00 0.0000000000000000e+00 0.0000000000000000e+00  0.0000000000000000e+00 0.0000000000000000e+00 0.0000000000000000e+00  0.0000000000000000e+00 0.0000000000000000e+00 0.0000000000000000e+00  0.0000000000000000e+00 0.0000000000000000e+00 0.0000000000000000e+00  0.0000000000000000e+00 0.0000000000000000e+00 0.0000000000000000e+00  0.0000000000000000e+00 0.0000000000000000e+00 0.0000000000000000e+00  0.0000000000000000e+00 0.0000000000000000e+00 0.0000000000000000e+00  0.0000000000000000e+00 0.0000000000000000e+00 0.0000000000000000e+00  0.0000000000000000e+00 0.0000000000000000e+00 0.0000000000000000e+00  0.0000000000000000e+00 0.0000000000000000e+00 0.0000000000000000e+00  0.0000000000000000e+00 0.0000000000000000e+00 0.0000000000000000e+00  0.0000000000000000e+00 0.0000000000000000e+00 0.0000000000000000e+00  0.0000000000000000e+00 0.0000000000000000e+00 0.0000000000000000e+00  0.0000000000000000e+00 0.0000000000000000e+00 0.0000000000000000e+00  -1.1273490800980298e-04 2.8390703850113095e-05 0.0000000000000000e+00  1.7934455453272373e-02 -4.8899956514668288e-06 0.0000000000000000e+00  1.7052781627226340e-02 5.2128000886414965e-05 0.0000000000000000e+00  1.7940828061552921e-02 -1.4403261619105639e-07 0.0000000000000000e+00  1.7962700108876916e-02 1.5908396760376944e-05 0.0000000000000000e+00  4.2582951116922742e-06 1.7900168553746886e-02 0.0000000000000000e+00  -1.7890081661352985e-02 2.1116876951600369e-05 0.0000000000000000e+00  1.6446819297690883e-05 1.7909002303568747e-02 0.0000000000000000e+00  -1.7086001458620406e-02 6.3870484173602060e-05 0.0000000000000000e+00  6.2055072961831966e-06 -1.7905018835191435e-02 0.0000000000000000e+00  -2.4116119626374122e-05 -1.6945552742359715e-02 0.0000000000000000e+00  1.9975646677303880e-05 1.6948089903173542e-02 0.0000000000000000e+00  1.8792317347724775e-05 1.7914583017643326e-02 0.0000000000000000e+00  1.8534519086018204e-05 -1.7905164215931434e-02 0.0000000000000000e+00  2.4990755260699185e-05 -1.7937853130613027e-02 0.0000000000000000e+00  -1.7950923333011497e-02 -3.4413608198928439e-06 0.0000000000000000e+00  -1.7925259232581776e-02 -1.7356272049955637e-05 0.0000000000000000e+00  -1.8704108349938409e-05 1.7954448134723952e-02 0.0000000000000000e+00  1.7902575676037310e-02 -1.5810164850093428e-05 0.0000000000000000e+00  -2.6381936208774554e-05 -1.7793326100154286e-02 0.0000000000000000e+00  -1.7853370378527890e-02 -1.9755789772629151e-05 0.0000000000000000e+00  -1.1522022002903892e-02 -2.4539994289661617e-03 0.0000000000000000e+00  2.2403897522754422e-03 -1.1234732681727295e-02 0.0000000000000000e+00  1.1193923935131552e-02 2.4851262182286689e-03 0.0000000000000000e+00  2.4117067423913082e-03 1.1246919280677432e-02 0.0000000000000000e+00  0.0000000000000000e+00 0.0000000000000000e+00 0.0000000000000000e+00  0.0000000000000000e+00 0.0000000000000000e+00 0.0000000000000000e+00  0.0000000000000000e+00 0.0000000000000000e+00 0.0000000000000000e+00  0.0000000000000000e+00 0.0000000000000000e+00 0.0000000000000000e+00  -7.9686157999034109e-03 6.6205245110434454e-03 0.0000000000000000e+00  0.0000000000000000e+00 0.0000000000000000e+00 0.0000000000000000e+00  0.0000000000000000e+00 0.0000000000000000e+00 0.0000000000000000e+00  0.0000000000000000e+00 0.0000000000000000e+00 0.0000000000000000e+00  3.5217429348137526e-05 -1.7111486319055298e-02 0.0000000000000000e+00  0.0000000000000000e+00 0.0000000000000000e+00 0.0000000000000000e+00  -1.7873469178182201e-02 -4.2598727903037641e-06 0.0000000000000000e+00  -1.7720699809807332e-02 3.0804045385424394e-05 0.0000000000000000e+00  -1.7665177654029744e-02 -6.5464750300216588e-06 0.0000000000000000e+00  0.0000000000000000e+00 0.0000000000000000e+00 0.0000000000000000e+00  0.0000000000000000e+00 0.0000000000000000e+00 0.0000000000000000e+00  8.7086384869060652e-06 1.7846174702906486e-02 0.0000000000000000e+00  -6.5216434547140359e-06 1.7830050743232455e-02 0.0000000000000000e+00  0.0000000000000000e+00 0.0000000000000000e+00 0.0000000000000000e+00  0.0000000000000000e+00 0.0000000000000000e+00 0.0000000000000000e+00  8.6118770616004715e-05 1.7655557406736098e-02 0.0000000000000000e+00  -1.4892575320432785e-04 1.7787003669354307e-02 0.0000000000000000e+00  0.0000000000000000e+00 0.0000000000000000e+00 0.0000000000000000e+00  0.0000000000000000e+00 0.0000000000000000e+00 0.0000000000000000e+00  3.2083351847032132e-05 -1.7754194646581952e-02 0.0000000000000000e+00  6.1204016099957551e-06 -1.7867552415080087e-02 0.0000000000000000e+00  0.0000000000000000e+00 0.0000000000000000e+00 0.0000000000000000e+00  -8.2607380256149611e-05 -1.7832944510939242e-02 0.0000000000000000e+00  1.7829001018419100e-04 -1.7731930504082543e-02 0.0000000000000000e+00  0.0000000000000000e+00 0.0000000000000000e+00 0.0000000000000000e+00  0.0000000000000000e+00 0.0000000000000000e+00 0.0000000000000000e+00  0.0000000000000000e+00 0.0000000000000000e+00 0.0000000000000000e+00  0.0000000000000000e+00 0.0000000000000000e+00 0.0000000000000000e+00  0.0000000000000000e+00 0.0000000000000000e+00 0.0000000000000000e+00  0.0000000000000000e+00 0.0000000000000000e+00 0.0000000000000000e+00  -1.7585843529694511e-02 1.4574435275889103e-04 0.0000000000000000e+00  -1.7775665591478761e-02 -1.2567075542123344e-04 0.0000000000000000e+00  0.0000000000000000e+00 0.0000000000000000e+00 0.0000000000000000e+00  0.0000000000000000e+00 0.0000000000000000e+00 0.0000000000000000e+00  0.0000000000000000e+00 0.0000000000000000e+00 0.0000000000000000e+00  0.0000000000000000e+00 0.0000000000000000e+00 0.0000000000000000e+00  0.0000000000000000e+00 0.0000000000000000e+00 0.0000000000000000e+00  0.0000000000000000e+00 0.0000000000000000e+00 0.0000000000000000e+00  1.7570769844633734e-02 1.6814425457551535e-04 0.0000000000000000e+00  1.7636483447757416e-02 -1.0333427358327218e-04 0.0000000000000000e+00  0.0000000000000000e+00 0.0000000000000000e+00 0.0000000000000000e+00  0.0000000000000000e+00 0.0000000000000000e+00 0.0000000000000000e+00  0.0000000000000000e+00 0.0000000000000000e+00 0.0000000000000000e+00  1.7614155918049053e-02 2.8814074060342452e-05 0.0000000000000000e+00  1.7886907927004234e-02 7.8611500976591601e-06 0.0000000000000000e+00  0.0000000000000000e+00 0.0000000000000000e+00 0.0000000000000000e+00  0.0000000000000000e+00 0.0000000000000000e+00 0.0000000000000000e+00  -3.3004401425927401e-03 1.4812167119371885e-02 0.0000000000000000e+00  1.5273794684067039e-02 -3.3968185502780304e-03 0.0000000000000000e+00  -3.0571074460203685e-03 -1.5487906231272820e-02 0.0000000000000000e+00  -1.5658615212450173e-02 2.9914034043566655e-03 0.0000000000000000e+00  2.8095216493497020e-05 -1.6991079246307050e-02 0.0000000000000000e+00  -5.9320291152013041e-06 -1.7819445472767065e-02 0.0000000000000000e+00  -1.7713036366474155e-02 -1.9424421413690015e-05 0.0000000000000000e+00  -1.0265147890151835e-06 1.7789109779779322e-02 0.0000000000000000e+00  4.0062875162976983e-05 1.7668216150709515e-02 0.0000000000000000e+00  7.5150195158208847e-03 -4.6966321637948215e-03 0.0000000000000000e+00  1.7033530670285908e-02 2.4470235588312452e-03 0.0000000000000000e+00  2.5491047070377405e-05 1.7084193534636423e-02 0.0000000000000000e+00  -4.3972245298539081e-03 -7.4049962769352990e-03 0.0000000000000000e+00  -1.7586115303239131e-02 2.0375342241023370e-05 0.0000000000000000e+00  -1.7826985406917174e-02 8.6123095080054048e-06 0.0000000000000000e+00  4.2520741345399226e-05 -1.7604408577776530e-02 0.0000000000000000e+00  1.7865873977481520e-02 1.0349316889642350e-05 0.0000000000000000e+00  1.7674129553813585e-02 2.4703670293791328e-05 0.0000000000000000e+00  1.7788570502767855e-02 4.9401232147913127e-06 0.0000000000000000e+00  1.6838675087133156e-02 -7.8697554374385060e-06 0.0000000000000000e+00  2.7759277174282908e-05 1.7645371890980290e-02 0.0000000000000000e+00  -2.5300230594101578e-05 1.7815949314940821e-02 0.0000000000000000e+00  -8.8556156410760456e-06 -1.7723614902851875e-02 0.0000000000000000e+00  2.8151444142206074e-03 1.7567140015225399e-02 0.0000000000000000e+00  -1.7177278928428352e-02 -2.6313978318692195e-03 0.0000000000000000e+00  2.4134806178282052e-03 -1.7074408410703987e-02 0.0000000000000000e+00  1.3586455781203657e-05 1.7858311160808504e-02 0.0000000000000000e+00  -7.0008334045683841e-06 -1.7950176433205369e-02 0.0000000000000000e+00  -1.7839458474049472e-02 -4.0017754673225150e-05 0.0000000000000000e+00  1.6877608582552384e-02 1.2937610247884612e-05 0.0000000000000000e+00  -1.7678632161193784e-02 -8.5230128255963957e-06 0.0000000000000000e+00  1.7749372530956244e-02 -2.5440435748042320e-06 0.0000000000000000e+00  -1.7866412756403219e-02 -4.6760971358555249e-05 0.0000000000000000e+00  8.5983745637222471e-06 -1.7699945881018007e-02 0.0000000000000000e+00  2.4038532720132352e-06 1.7678629201128018e-02 0.0000000000000000e+00  1.7215619004926172e-02 5.2236453322021095e-05 0.0000000000000000e+00  1.7679673855322386e-02 -1.0140204290626862e-03 0.0000000000000000e+00  1.7752118821326792e-02 -2.6843052721037348e-06 0.0000000000000000e+00  1.3952875182114758e-05 1.7714639032027781e-02 0.0000000000000000e+00  -4.6805388575387799e-05 1.7643127258734192e-02 0.0000000000000000e+00  -1.7718374644061594e-02 -4.9016827786654833e-06 0.0000000000000000e+00  -1.7712929744645348e-02 1.0352905115547722e-03 0.0000000000000000e+00  -6.8684954692178565e-04 -1.7721192173574978e-02 0.0000000000000000e+00  1.0304302635747898e-05 -1.7640946195617461e-02 0.0000000000000000e+00  -7.5785374075055937e-04 1.7847428874563951e-02 0.0000000000000000e+00  -1.7803588162073048e-02 4.9848158056367956e-05 0.0000000000000000e+00  2.4118476108676872e-05 -1.7703853119915992e-02 0.0000000000000000e+00  1.7636862749357655e-02 1.9635172854747292e-06 0.0000000000000000e+00  -1.7037129606848739e-02 -9.7909457017536152e-07 0.0000000000000000e+00  1.7825468350379077e-02 -3.0859455630586856e-06 0.0000000000000000e+00  1.6969016558378149e-02 -6.3673421009740252e-05 0.0000000000000000e+00  -1.6994187324690633e-02 -1.2908070746290703e-04 0.0000000000000000e+00  2.2820806681361244e-05 1.7679057643503963e-02 0.0000000000000000e+00  2.8833400457233221e-05 -1.7655540008801315e-02 0.0000000000000000e+00  1.7009491955829049e-02 5.3469909048752527e-04 0.0000000000000000e+00  5.9222640446415624e-04 1.7564812367246451e-02 0.0000000000000000e+00  2.3656048344386435e-05 1.7910770550096974e-02 0.0000000000000000e+00  1.7103439897791638e-02 -2.1737146158566127e-06 0.0000000000000000e+00  -1.7940115939820908e-02 -4.3906842787596065e-06 0.0000000000000000e+00  -1.5357649534959350e-02 3.5159039847004887e-05 0.0000000000000000e+00  1.7923821352246891e-05 1.4775724857246951e-02 0.0000000000000000e+00  -2.8885291464824437e-06 -1.7942875954720255e-02 0.0000000000000000e+00  -5.2671010637857048e-05 -1.5087911645042175e-02 0.0000000000000000e+00  1.7929037408488308e-02 -8.2969101103964544e-06 0.0000000000000000e+00  1.4821170062334051e-02 2.6230717459981855e-05 0.0000000000000000e+00  -4.7345755573234951e-06 1.5395425446433082e-02 0.0000000000000000e+00  -1.7339860623318437e-02 1.1236420695055012e-04 0.0000000000000000e+00  -2.6386974061399320e-05 -1.5378960888626746e-02 0.0000000000000000e+00  5.8938830275833875e-05 1.5339274562336955e-02 0.0000000000000000e+00  -3.2894124589411594e-06 -1.5098410237490721e-02 0.0000000000000000e+00  4.8993415365683945e-03 4.7396007267450010e-03 0.0000000000000000e+00  9.2003794694604825e-03 1.0764832968080909e-02 0.0000000000000000e+00  -1.2025210004057141e-03 6.1521641154642578e-03 0.0000000000000000e+00  6.9774960404246546e-04 -1.7566422633757930e-02 0.0000000000000000e+00  -1.7540197192906639e-02 -6.2463281101214456e-04 0.0000000000000000e+00  -9.7041130418563090e-06 1.7652744843653957e-02 0.0000000000000000e+00  7.5656189666444367e-06 -1.7686293382829746e-02 0.0000000000000000e+00  0.0000000000000000e+00 0.0000000000000000e+00 0.0000000000000000e+00  0.0000000000000000e+00 0.0000000000000000e+00 0.0000000000000000e+00  8.1316578615585290e-04 -1.5117541090929772e-02 0.0000000000000000e+00  -1.5217759423494962e-02 -4.6854042975479667e-04 0.0000000000000000e+00  -5.7443157017743980e-03 -1.4675114312687153e-03 0.0000000000000000e+00  9.5712151461874746e-03 -1.2260503881178232e-02 0.0000000000000000e+00  -1.5093064098993521e-02 -7.5676126833110809e-03 0.0000000000000000e+00  1.5199656806689291e-02 4.6307183949654152e-04 0.0000000000000000e+00  8.0024480611008271e-05 1.4997866299259638e-02 0.0000000000000000e+00  1.5044277121619965e-03 -5.6916563345215526e-03 0.0000000000000000e+00  0.0000000000000000e+00 0.0000000000000000e+00 0.0000000000000000e+00  1.5523981575553705e-02 -2.5900040445221489e-04 0.0000000000000000e+00  -2.0030971832714051e-03 -1.7738708468322303e-02 0.0000000000000000e+00  0.0000000000000000e+00 0.0000000000000000e+00 0.0000000000000000e+00  6.1540175611820249e-05 -1.5390048942334958e-02 0.0000000000000000e+00  0.0000000000000000e+00 0.0000000000000000e+00 0.0000000000000000e+00  7.8943774876818234e-05 1.5757259528534368e-02 0.0000000000000000e+00  -1.5810917132340622e-02 -1.2522187635320050e-04 0.0000000000000000e+00  0.0000000000000000e+00 0.0000000000000000e+00 0.0000000000000000e+00  0.0000000000000000e+00 0.0000000000000000e+00 0.0000000000000000e+00  0.0000000000000000e+00 0.0000000000000000e+00 0.0000000000000000e+00  9.9288595032661505e-06 -1.7894589152147648e-02 0.0000000000000000e+00  -3.3038993974023380e-05 1.7856906439724318e-02 0.0000000000000000e+00  1.7925295648504692e-02 3.9598269754090668e-06 0.0000000000000000e+00  1.7628792053798973e-02 -2.8242896596159130e-04 0.0000000000000000e+00  -1.7849832699633091e-02 -1.7710926701028907e-05 0.0000000000000000e+00  1.3899216969739150e-05 -1.7864005893837683e-02 0.0000000000000000e+00  1.8392892222700188e-05 1.7797031187569458e-02 0.0000000000000000e+00  -1.7932842631444564e-02 3.3547173511893036e-06 0.0000000000000000e+00  1.5014668400466048e-02 1.3998234688271591e-06 0.0000000000000000e+00  0.0000000000000000e+00 0.0000000000000000e+00 0.0000000000000000e+00  0.0000000000000000e+00 0.0000000000000000e+00 0.0000000000000000e+00  3.6986340992315012e-04 -1.5753680612004793e-02 0.0000000000000000e+00  -7.9619422199852131e-05 1.5719202884422894e-02 0.0000000000000000e+00  0.0000000000000000e+00 0.0000000000000000e+00 0.0000000000000000e+00  -1.7180298966601788e-02 2.4442178239449661e-04 0.0000000000000000e+00  0.0000000000000000e+00 0.0000000000000000e+00 0.0000000000000000e+00  0.0000000000000000e+00 0.0000000000000000e+00 0.0000000000000000e+00  1.7284593526472644e-02 4.2853626735812951e-05 0.0000000000000000e+00  -1.7166396871079462e-02 -2.1404246134886870e-05 0.0000000000000000e+00  0.0000000000000000e+00 0.0000000000000000e+00 0.0000000000000000e+00  0.0000000000000000e+00 0.0000000000000000e+00 0.0000000000000000e+00  -8.3213154724559712e-03 -1.2928066070776076e-02 0.0000000000000000e+00  -1.1063515393399468e-05 -1.7651465586153464e-02 0.0000000000000000e+00  -1.7730657343108872e-02 6.1603896079280709e-05 0.0000000000000000e+00  1.7830798288271318e-02 1.9841654558146066e-06 0.0000000000000000e+00  1.4334552246690806e-05 1.7925408977854940e-02 0.0000000000000000e+00  -1.5722850031384173e-02 -8.0856998031859426e-05 0.0000000000000000e+00  1.1172934673552697e-04 1.5494226383663668e-02 0.0000000000000000e+00  -6.1567606452650361e-06 1.5479152333712420e-02 0.0000000000000000e+00  5.0075397695795699e-05 -1.5438561387291678e-02 0.0000000000000000e+00  1.8314672746565664e-05 -1.7731262827032031e-02 0.0000000000000000e+00  0.0000000000000000e+00 0.0000000000000000e+00 0.0000000000000000e+00  3.7884290585815548e-06 -1.7677915239152124e-02 0.0000000000000000e+00  -9.1205630873318778e-03 1.8785561316533501e-03 0.0000000000000000e+00  -1.3817052540588000e-02 9.2869389534728751e-03 0.0000000000000000e+00  1.5986129026758118e-02 7.4715162695792609e-03 0.0000000000000000e+00  -1.3234548227217739e-03 -1.6810592887812545e-02 0.0000000000000000e+00  4.9341612002059996e-03 1.1626131499688901e-04 0.0000000000000000e+00  -1.5934011459909022e-02 -1.7011176340913248e-04 0.0000000000000000e+00  4.9883232818557322e-06 -1.5953801869279204e-02 0.0000000000000000e+00  -1.7956801213978764e-04 1.5925840662079711e-02 0.0000000000000000e+00  1.5749754932182829e-02 1.8749129218167778e-05 0.0000000000000000e+00  1.5689910559924136e-02 -3.9887511417518243e-06 0.0000000000000000e+00  1.4862153473111186e-04 1.7639195102875583e-02 0.0000000000000000e+00  1.5703232692209461e-02 2.9849105423752285e-04 0.0000000000000000e+00  2.5638610798229910e-05 -1.7907339174189851e-02 0.0000000000000000e+00  1.6300082505450273e-05 1.7917193449066570e-02 0.0000000000000000e+00  1.7811142658174659e-02 2.5195556793257468e-05 0.0000000000000000e+00  -1.7907194040125606e-02 3.4543857261781145e-05 0.0000000000000000e+00  -1.5281968841359919e-02 1.2170588599541766e-04 0.0000000000000000e+00  -1.4387483916357061e-04 -1.7623690230229187e-02 0.0000000000000000e+00  -1.4493427505848320e-04 -1.5154806435151170e-02 0.0000000000000000e+00  -1.7599286392901585e-02 3.6434121609720368e-04 0.0000000000000000e+00  1.7932262939941379e-02 1.4182629445714420e-05 0.0000000000000000e+00  4.3606001734345854e-06 1.7865839105050841e-02 0.0000000000000000e+00  1.7614176744635206e-02 2.9918124996422345e-04 0.0000000000000000e+00  -2.0487128075000853e-03 1.0967951983269057e-02 0.0000000000000000e+00  0.0000000000000000e+00 0.0000000000000000e+00 0.0000000000000000e+00  0.0000000000000000e+00 0.0000000000000000e+00 0.0000000000000000e+00  0.0000000000000000e+00 0.0000000000000000e+00 0.0000000000000000e+00  -6.7058095609441497e-06 1.7935905266453337e-02 0.0000000000000000e+00  1.7427406747679447e-05 1.7841232339059106e-02 0.0000000000000000e+00  1.9974108203501855e-05 -1.7868410925851064e-02 0.0000000000000000e+00  -1.7750497806121313e-02 -9.5943401945754908e-06 0.0000000000000000e+00  0.0000000000000000e+00 0.0000000000000000e+00 0.0000000000000000e+00  -4.6722973453042146e-06 -1.7903078312213109e-02 0.0000000000000000e+00  0.0000000000000000e+00 0.0000000000000000e+00 0.0000000000000000e+00  -1.5288716111969428e-02 -2.2188425805317104e-05 0.0000000000000000e+00  -3.2236585560067436e-05 -1.7841191627703236e-02 0.0000000000000000e+00  -1.4719223867008782e-03 1.6401783959491482e-02 0.0000000000000000e+00  -2.5234663037373801e-03 1.7478078003304722e-02 0.0000000000000000e+00  -1.7902263078646792e-02 2.8023274544301192e-0