<?xml version="1.0"?>
<VTKFile type="UnstructuredGrid"  version="0.1"  >
<UnstructuredGrid>
<Piece  NumberOfPoints="778" NumberOfCells="1401">
<Points>
<DataArray  type="Float64"  NumberOfComponents="3"  format="ascii">1 -1 0  6 -1 0  6 1 0  1 1 0  1 6 0  -1 6 0  -1 1 0  -6 1 0  -6 -1 0  -1 -1 0  -1 -6 0  1 -6 0  1 3.5 0  -1 3.5 0  -1 -3.5 0  1 -3.5 0  3.5 -1 0  3.5 1 0  -3.5 -1 0  -3.5 1 0  -1 -2.25 0  1 -2.25 0  2.25 -1 0  2.25 1 0  -1 2.25 0  1 2.25 0  -1 4.75 0  1 4.75 0  -4.75 -1 0  -4.75 1 0  -2.25 1 0  -2.25 -1 0  1 -4.75 0  -1 -4.75 0  4.75 1 0  4.75 -1 0  0 0 0  -2.875 0 0  -1.625 0 0  -4.125 0 0  -6 0 0  0 2.875 0  2.875 0 0  0 6 0  1.625 0 0  0 -2.875 0  0 -1.625 0  0 1.625 0  0 4.125 0  0 -6 0  0 -4.125 0  4.125 0 0  6 0 0  -0.109375 5.0625 0  -5.0625 -0.109375 0  -0.109375 -5.0625 0  5.0625 0.109375 0  0.8125 -0.1875 0  -0.1875 -0.8125 0  -0.8125 0.1875 0  -0.1875 0.8125 0  1 5.375 0  -5.375 1 0  1 -5.375 0  5.375 -1 0  0.53515625 0.46484375 0  -5.375 -1 0  -1 5.375 0  -1 -5.375 0  -0.5 -6 0  5.375 1 0  6 0.5 0  3.5 0.3046875 0  3.43125 -0.34765625 0  2.875 -1 0  4.125 1 0  0.3046875 3.5 0  -0.34765625 3.56875 0  -1 4.125 0  1 4.125 0  -0.3046875 2.25 0  0.34765625 2.18125 0  1 1.625 0  -1 -1.625 0  -0.3046875 -3.5 0  0.34765625 -3.56875 0  1 -4.125 0  0.3046875 -2.25 0  -0.34765625 -2.18125 0  -1 -4.125 0  -1 -2.875 0  1 -2.875 0  1 -1.625 0  1.625 -1 0  1.625 1 0  2.25 0.3046875 0  2.18125 -0.34765625 0  4.125 -1 0  2.875 1 0  1 2.875 0  -1 1.625 0  -1 2.875 0  -4.125 -1 0  -2.25 0.3046875 0  -2.31875 -0.34765625 0  -2.875 -1 0  -1.625 1 0  -4.125 1 0  -3.5 0.3046875 0  -3.56875 -0.34765625 0  -1.625 -1 0  -2.875 1 0  0.380626321794301 1.06853329530276 0  -1.110819327731092 -0.3739495798319328 0  0.3739495798319328 -1.110819327731092 0  1.151210293219304 0.3991939332620648 0  -0.5 -4.4375 0  0.5 -4.4375 0  5.481553398058253 -0.3712833737864077 0  0.5 4.4375 0  0.5 6 0  -0.522503783594538 -0.3265648647465863 0  -1.3125 0.5 0  -0.5 6 0  0.3265648647465863 -0.522503783594538 0  4.4375 0.5 0  4.4375 -0.5 0  0.5 -6 0  -6 -0.5 0  -5.481553398058253 0.3712833737864077 0  -4.55 -0.4296875 0  -4.4375 0.5 0  -0.5 4.4375 0  0.4792930825242718 5.026881067961165 0  0.4792930825242718 -5.026881067961165 0  -0.5 1.3125 0  1.3125 -0.5 0  -0.5 -1.3125 0  0.25 5.518539952962044 0  0.2125133872612723 -5.500076563152851 0  4.969341874373811 -0.5152550785163683 0  -4.969341874373811 0.5152550785163683 0  3.927189744345589 -0.4712876597840069 0  -5.554036458333333 -0.25 0  5.554036458333333 0.25 0  -0.4690710616438356 -5.462756849315069 0  -0.4690710616438356 5.462756849315069 0  -6 0.5 0  -1.59556436210848 -0.5 0  -3.058421751829955 -0.5 0  -0.5 2.731982421875 0  0.5 2.691578248170045 0  2.691578248170045 -0.5 0  1.641211254104555 0.5 0  0.5 -1.768017578125 0  0.5 -3.058421751829955 0  0.5 1.699267578125 0  3.018017578125 0.5 0  -0.5 -3.018017578125 0  -2.731982421875 0.5 0  6 -0.5 0  -4.050017120925308 -0.5006099332648871 0  -3.940668202764977 0.5371363767281105 0  3.940668202764977 0.5371363767281105 0  0.4517449476047904 3.958458083832335 0  -0.4517449476047904 -3.958458083832335 0  -1.809331797235023 0.5371363767281105 0  -0.4517449476047904 1.791541916167665 0  -0.0546875 4.59375 0  -5.006445312499999 -0.58984375 0  4.605643203883496 -0.04725424757281554 0  4.90625 0.5546875 0  -0.5546875 4.90625 0  0.04725424757281554 -4.605643203883496 0  -0.586116118210531 -4.995821561900013 0  -4.603710222472543 0.04846236095466061 0  -3.1875 0.65234375 0  0.6163907621110913 3.147502300973589 0  2.5625 0.65234375 0  0.6163907621110913 -2.602497699026411 0  -0.637456713551384 3.189259902731882 0  -0.637456713551384 -2.560740097268118 0  -0.34765625 0.34765625 0  -0.639453125 0.708203125 0  0.089630126953125 0.437286376953125 0  -0.4238281249999999 -1.746875 0  1.746875 -0.4238281249999999 0  -0.4238281249999999 4.003125 0  0.4238281249999999 -4.003125 0  -2.5625 -1 0  3.1875 -1 0  -0.09375 -1.21875 0  1.21875 -0.09375 0  0.4020305405760241 -0.1120343241705621 0  -0.6280191027904287 -0.7577505545748082 0  0.90625 -0.59375 0  -1.205500904741459 0.03633725387965409 0  -0.02129048848213058 1.202028574265107 0  -0.1120343241705621 -0.4020305405760241 0  1 1.3125 0  -2.003587563743074 -0.6442361556699288 0  0.6640077663259718 -1.395873598614549 0  5.6875 -1 0  0.6308138580859101 -5.592151086468728 0  -5.6875 -1 0  0.6568032075915271 5.612942566073222 0  5.616530031741774 0.6612875396772174 0  -5.6875 1 0  1.9375 1 0  -1.3125 -1 0  0.1524679547155687 -3.232579139388032 0  0.1524679547155687 2.517420860611968 0  -3.232579139388032 -0.1524679547155687 0  -1.932320553757026 -0.252759244693845 0  2.517420860611968 -0.1524679547155687 0  -0.04776045819569434 -2.464949198504599 0  -0.2420369079104247 3.187693796852321 0  3.751304711039982 -0.1203080877045035 0  -5.397601941771943 -0.609026059866711 0  1.3125 1 0  1.9375 -1 0  -0.6946315101963667 -2.018229242739021 0  -0.6946315101963667 3.731770757260979 0  1 -3.8125 0  2.014364435550335 0.6166648446293641 0  -1 5.6875 0  -1 -5.6875 0  -2.653476149871182 -0.5942957192996303 0  3.096523850128818 -0.5942957192996303 0  1 1.9375 0  -3.8125 -1 0  0.586975531244212 -0.7975955463807081 0  -0.2946248980953088 -4.743710873809568 0  2.625453376770019 0.2814788818359375 0  -3.124546623229981 0.2814788818359375 0  -0.1204856417894853 5.631800603217465 0  5.253862011026742 0.6581468962876398 0  -0.65234375 2.108701557941197 0  0.65234375 3.641298442058803 0  -0.65234375 -3.641298442058803 0  -0.25 -5.744880569758637 0  -4.4375 -1 0  -0.3166212631734941 -2.713595940002554 0  0.6591479224207506 0.1324305912687024 0  0.8660781906552419 0.6468634238104103 0  -0.9887189158197679 0.6452930723873549 0  0.3149351927204296 -1.460971774996065 0  -0.3572852727880474 -0.009629022788047503 0  2.09375 -0.6866724363772454 0  0.6866724363772454 -3.65625 0  0.6866724363772454 2.09375 0  -3.65625 -0.6866724363772454 0  -3.5371337890625 0.65234375 0  -0.1389584113023952 1.944025352615082 0  -2.151744288472698 0.65234375 0  -0.1389584113023951 -3.805974647384918 0  0.1389584113023951 3.805974647384918 0  -2.578772109813904 0.1857224367977529 0  3.171227890186096 0.1857224367977529 0  3.360315647536819 0.65234375 0  0.1857224367977528 -1.921227890186096 0  0.65234375 -2.110315647536819 0  1.894016528727564 0.2415406141485869 0  -3.738232421875 0 0  0.2516875549238616 3.139069895099618 0  -1.913724396854074 0.2011142179916434 0  0.1669456568161915 0.7843410671359501 0  -2.5625 1 0  -1 -3.1875 0  -1 2.5625 0  0.1736601499778735 4.857955663330752 0  -0.1893536587212888 2.577300639071919 0  -0.1893536587212888 -3.172699360928081 0  3.852271904453858 0.206603749322895 0  -3.8125 1 0  -0.1250095034621793 -5.421707592768541 0  3.8125 -1 0  3.617304217264373 -0.6578427703661498 0  0.2630176195580202 -2.636558318495885 0  0.2674330357770522 1.399517071108871 0  0.631726413079416 1.339254523727593 0  4.700571879807737 0.2813704945051134 0  0.7143844363649634 -3.319538455208831 0  2.430461544791169 -0.7143844363649634 0  0.7143844363649634 2.430461544791169 0  -3.319538455208831 -0.7143844363649634 0  5.687045771608623 -0.6520598572553891 0  -5.687045771608623 0.6520598572553891 0  -1.15625 -0.7048248829733235 0  3.438284572973296 -0.01860298867862281 0  -0.03021088078697859 3.451572359862192 0  2.216682837011589 -0.02159585961918548 0  -2.191580885932936 -0.03126387444658879 0  0.1857410764408683 1.895679405349457 0  3.103473238297955 -0.253270943723272 0  -2.646526761702045 -0.253270943723272 0  -2.333137350671861 -0.6791984914172315 0  -1 5.0625 0  -0.6971235589909319 5.213002544375844 0  0.01618705363819947 2.225929180591695 0  0.01618705363819947 -3.524070819408305 0  0.5690054882403073 0.7951310720450595 0  -0.5764940424412852 -3.329579265180942 0  -0.5764940424412852 2.420420734819058 0  3.8125 1 0  -5.372163860234628 0.04365139563106807 0  5.164108319316826 -0.225040894204947 0  -5.361952437854323 0.6744012088984681 0  -5.0625 1 0  5.286835586913878 -0.6616705837083201 0  -5.692815197359722 0.1186699900166531 0  5.663425996156958 -0.07763197815533956 0  -0.9219866027132193 -0.1143045829323572 0  -1.394333629759332 -0.2233077430199216 0  0.09322478991596644 -0.9616596638655462 0  5.0625 -1 0  -0.14412109375 -1.92169189453125 0  -4.28125 -0.7212148987671345 0  0.2649796277366407 0.1735162902120744 0  -4.907855692236596 0.1868230509619793 0  -1.9375 1 0  1 5.0625 0  0.6915124486819284 -5.272938212550202 0  0.683483242673902 5.284948082526911 0  2.5625 -1 0  -1 -3.8125 0  -1 1.9375 0  5.0625 1 0  -1 -1.9375 0  1 5.6875 0  1 -5.6875 0  -1.9375 -1 0  -1 -2.5625 0  -1 3.1875 0  1 -3.1875 0  1 -2.5625 0  1 2.5625 0  1 3.1875 0  -5.0625 -1 0  -1 -1.3125 0  1.3125 -1 0  -1 1.3125 0  -1 3.8125 0  -1 4.4375 0  -4.4375 1 0  4.4375 -1 0  4.4375 1 0  -1.3125 1 0  1 4.4375 0  1 -4.4375 0  -1 -5.0625 0  -1 -4.4375 0  -3.1875 1 0  2.5625 1 0  1 -1.9375 0  1 -1.3125 0  5.6875 1 0  1 3.8125 0  3.1875 1 0  -3.1875 -1 0  1 -5.0625 0  1.35138038998199 0.6675097549271188 0  -0.465625 0.986328125 0  1.435958105992309 0.2563920171199723 0  1.915914614192913 -0.145782394639918 0  -0.8764440609469509 -0.5746869313612541 0  5.355194559946098 0.01566259380337612 0  -5.69333042954964 -0.5242868300459975 0  1.78125 -0.7320750794491524 0  0.7320750794491525 -3.96875 0  -0.3959075548864684 5.166422468926435 0  -4.770522389068053 -0.2123670725088856 0  -4.714160156249999 -0.69234375 0  -4.273484403713342 -0.278160994327167 0  0.9642590244517505 0.08196089404241463 0  0.3500261717645397 -4.727285205957206 0  0.6740868006020392 -4.765147848348443 0  0.6797550207247084 -1.089747806381148 0  -5.186479934354063 0.3046329157552757 0  -5.263288238215326 -0.3369092276308425 0  -2.433484016245305 0.5442571297016638 0  0.1707808983307866 -3.82363304980935 0  -0.1554012991031027 3.867535742674252 0  4.855508096805579 -0.2283975605264581 0  3.644517238097614 0.5646428152488787 0  0.05699603874439441 -0.6452791208413911 0  -0.3550018917972689 -0.5695324323732931 0  0.6
[...]
<PointData  Vectors="u"> 
<DataArray  type="Float64"  Name="u"  NumberOfComponents="3" format="ascii">0.0000000000000000e+00 0.0000000000000000e+00 0.0000000000000000e+00  0.0000000000000000e+00 0.0000000000000000e+00 0.0000000000000000e+00  0.0000000000000000e+00 0.0000000000000000e+00 0.0000000000000000e+00  0.0000000000000000e+00 0.0000000000000000e+00 0.0000000000000000e+00  0.0000000000000000e+00 0.0000000000000000e+00 0.0000000000000000e+00  0.0000000000000000e+00 0.0000000000000000e+00 0.0000000000000000e+00  0.0000000000000000e+00 0.0000000000000000e+00 0.0000000000000000e+00  0.0000000000000000e+00 0.0000000000000000e+00 0.0000000000000000e+00  0.0000000000000000e+00 0.0000000000000000e+00 0.0000000000000000e+00  0.0000000000000000e+00 0.0000000000000000e+00 0.0000000000000000e+00  0.0000000000000000e+00 0.0000000000000000e+00 0.0000000000000000e+00  0.0000000000000000e+00 0.0000000000000000e+00 0.0000000000000000e+00  0.0000000000000000e+00 0.0000000000000000e+00 0.0000000000000000e+00  0.0000000000000000e+00 0.0000000000000000e+00 0.0000000000000000e+00  0.0000000000000000e+00 0.0000000000000000e+00 0.0000000000000000e+00  0.0000000000000000e+00 0.0000000000000000e+00 0.0000000000000000e+00  0.0000000000000000e+00 0.0000000000000000e+00 0.0000000000000000e+00  0.0000000000000000e+00 0.0000000000000000e+00 0.0000000000000000e+00  0.0000000000000000e+00 0.0000000000000000e+00 0.0000000000000000e+00  0.0000000000000000e+00 0.0000000000000000e+00 0.0000000000000000e+00  0.0000000000000000e+00 0.0000000000000000e+00 0.0000000000000000e+00  0.0000000000000000e+00 0.0000000000000000e+00 0.0000000000000000e+00  0.0000000000000000e+00 0.0000000000000000e+00 0.0000000000000000e+00  0.0000000000000000e+00 0.0000000000000000e+00 0.0000000000000000e+00  0.0000000000000000e+00 0.0000000000000000e+00 0.0000000000000000e+00  0.0000000000000000e+00 0.0000000000000000e+00 0.0000000000000000e+00  0.0000000000000000e+00 0.0000000000000000e+00 0.0000000000000000e+00  0.0000000000000000e+00 0.0000000000000000e+00 0.0000000000000000e+00  0.0000000000000000e+00 0.0000000000000000e+00 0.0000000000000000e+00  0.0000000000000000e+00 0.0000000000000000e+00 0.0000000000000000e+00  0.0000000000000000e+00 0.0000000000000000e+00 0.0000000000000000e+00  0.0000000000000000e+00 0.0000000000000000e+00 0.0000000000000000e+00  0.0000000000000000e+00 0.0000000000000000e+00 0.0000000000000000e+00  0.0000000000000000e+00 0.0000000000000000e+00 0.0000000000000000e+00  0.0000000000000000e+00 0.0000000000000000e+00 0.0000000000000000e+00  0.0000000000000000e+00 0.0000000000000000e+00 0.0000000000000000e+00  -1.6733457699346364e-04 6.4583933046610001e-05 0.0000000000000000e+00  3.1637288035333451e-02 -8.5267163468502405e-06 0.0000000000000000e+00  3.0137487671930821e-02 6.5407171508863758e-05 0.0000000000000000e+00  3.1664449913831834e-02 1.1628890806719035e-06 0.0000000000000000e+00  3.1693480553860141e-02 2.5700474105505710e-05 0.0000000000000000e+00  7.7481043800721373e-06 3.1605781100653776e-02 0.0000000000000000e+00  -3.1568329135426051e-02 3.2910652773491540e-05 0.0000000000000000e+00  2.7080327744168568e-05 3.1591406594234414e-02 0.0000000000000000e+00  -3.0201919480571760e-02 9.2677085031951390e-05 0.0000000000000000e+00  7.8750902112080291e-06 -3.1597480556721916e-02 0.0000000000000000e+00  -2.8435034827933860e-05 -3.0009207571916042e-02 0.0000000000000000e+00  2.9939578601126462e-05 2.9985670730452000e-02 0.0000000000000000e+00  2.9257578577228490e-05 3.1601242989551380e-02 0.0000000000000000e+00  2.8568972891127806e-05 -3.1599461535679559e-02 0.0000000000000000e+00  4.3475650361324168e-05 -3.1643427379010311e-02 0.0000000000000000e+00  -3.1676642954670514e-02 -7.6350708700567567e-06 0.0000000000000000e+00  -3.1634743923266088e-02 -3.0187575523128497e-05 0.0000000000000000e+00  -3.6331392086237184e-05 3.1680584176118298e-02 0.0000000000000000e+00  3.1613251426298172e-02 -3.3749380341770385e-05 0.0000000000000000e+00  -4.9027529477897124e-05 -3.1438946961947281e-02 0.0000000000000000e+00  -3.1533746960369202e-02 -3.6488736847184343e-05 0.0000000000000000e+00  -2.0378342061356421e-02 -4.3032500368132935e-03 0.0000000000000000e+00  4.0326987836868259e-03 -1.9960666704123955e-02 0.0000000000000000e+00  1.9893655717278649e-02 4.2871782997688495e-03 0.0000000000000000e+00  4.2621626083403840e-03 1.9991292383091348e-02 0.0000000000000000e+00  0.0000000000000000e+00 0.0000000000000000e+00 0.0000000000000000e+00  0.0000000000000000e+00 0.0000000000000000e+00 0.0000000000000000e+00  0.0000000000000000e+00 0.0000000000000000e+00 0.0000000000000000e+00  0.0000000000000000e+00 0.0000000000000000e+00 0.0000000000000000e+00  -1.4062600472893377e-02 1.1758858079960063e-02 0.0000000000000000e+00  0.0000000000000000e+00 0.0000000000000000e+00 0.0000000000000000e+00  0.0000000000000000e+00 0.0000000000000000e+00 0.0000000000000000e+00  0.0000000000000000e+00 0.0000000000000000e+00 0.0000000000000000e+00  5.3496718350046911e-05 -3.0157688626771924e-02 0.0000000000000000e+00  0.0000000000000000e+00 0.0000000000000000e+00 0.0000000000000000e+00  -3.1540854141283166e-02 -2.0551394537469432e-06 0.0000000000000000e+00  -3.1475859353277909e-02 4.7642879961812478e-05 0.0000000000000000e+00  -3.1391129977951050e-02 -2.4711376614907752e-06 0.0000000000000000e+00  0.0000000000000000e+00 0.0000000000000000e+00 0.0000000000000000e+00  0.0000000000000000e+00 0.0000000000000000e+00 0.0000000000000000e+00  1.5171395832416972e-05 3.1538849687058369e-02 0.0000000000000000e+00  -8.9283812016104878e-06 3.1561298818569963e-02 0.0000000000000000e+00  0.0000000000000000e+00 0.0000000000000000e+00 0.0000000000000000e+00  0.0000000000000000e+00 0.0000000000000000e+00 0.0000000000000000e+00  1.5463321095752564e-04 3.1293225213929791e-02 0.0000000000000000e+00  -2.5126854362908589e-04 3.1434426000943150e-02 0.0000000000000000e+00  0.0000000000000000e+00 0.0000000000000000e+00 0.0000000000000000e+00  0.0000000000000000e+00 0.0000000000000000e+00 0.0000000000000000e+00  4.4978771051940939e-05 -3.1452613553585099e-02 0.0000000000000000e+00  1.0867582675487379e-05 -3.1571092534003406e-02 0.0000000000000000e+00  0.0000000000000000e+00 0.0000000000000000e+00 0.0000000000000000e+00  -1.4386291920627007e-04 -3.1473167017835160e-02 0.0000000000000000e+00  3.0579685228249566e-04 -3.1398755471715049e-02 0.0000000000000000e+00  0.0000000000000000e+00 0.0000000000000000e+00 0.0000000000000000e+00  0.0000000000000000e+00 0.0000000000000000e+00 0.0000000000000000e+00  0.0000000000000000e+00 0.0000000000000000e+00 0.0000000000000000e+00  0.0000000000000000e+00 0.0000000000000000e+00 0.0000000000000000e+00  0.0000000000000000e+00 0.0000000000000000e+00 0.0000000000000000e+00  0.0000000000000000e+00 0.0000000000000000e+00 0.0000000000000000e+00  -3.1225831666193235e-02 2.3470933877138087e-04 0.0000000000000000e+00  -3.1411888778572802e-02 -2.1615891835878516e-04 0.0000000000000000e+00  0.0000000000000000e+00 0.0000000000000000e+00 0.0000000000000000e+00  0.0000000000000000e+00 0.0000000000000000e+00 0.0000000000000000e+00  0.0000000000000000e+00 0.0000000000000000e+00 0.0000000000000000e+00  0.0000000000000000e+00 0.0000000000000000e+00 0.0000000000000000e+00  0.0000000000000000e+00 0.0000000000000000e+00 0.0000000000000000e+00  0.0000000000000000e+00 0.0000000000000000e+00 0.0000000000000000e+00  3.1261529708639747e-02 2.6072016634901278e-04 0.0000000000000000e+00  3.1349147509860280e-02 -1.8654138548818901e-04 0.0000000000000000e+00  0.0000000000000000e+00 0.0000000000000000e+00 0.0000000000000000e+00  0.0000000000000000e+00 0.0000000000000000e+00 0.0000000000000000e+00  0.0000000000000000e+00 0.0000000000000000e+00 0.0000000000000000e+00  3.1284703593840064e-02 5.2456523156108983e-05 0.0000000000000000e+00  3.1596704712312483e-02 1.5172834911428791e-05 0.0000000000000000e+00  0.0000000000000000e+00 0.0000000000000000e+00 0.0000000000000000e+00  0.0000000000000000e+00 0.0000000000000000e+00 0.0000000000000000e+00  -5.8656465230448231e-03 2.6341306816913233e-02 0.0000000000000000e+00  2.7173939010707235e-02 -5.8890845408362778e-03 0.0000000000000000e+00  -5.4616053753228115e-03 -2.7484119225135030e-02 0.0000000000000000e+00  -2.7780076974999384e-02 5.2226711021599913e-03 0.0000000000000000e+00  3.9268243148282525e-05 -2.9987106452044592e-02 0.0000000000000000e+00  -5.5073358752093404e-06 -3.1559896615529971e-02 0.0000000000000000e+00  -3.1454564765912081e-02 -3.6772872309602595e-05 0.0000000000000000e+00  3.0205870273538659e-07 3.1509282318828082e-02 0.0000000000000000e+00  4.9896120994283980e-05 3.1381396490526244e-02 0.0000000000000000e+00  1.3282967518997690e-02 -8.3186599368555922e-03 0.0000000000000000e+00  3.0229024577210321e-02 4.3192402107079678e-03 0.0000000000000000e+00  3.5665779562035508e-05 3.0128591215338625e-02 0.0000000000000000e+00  -7.8622455086047888e-03 -1.3169711807750827e-02 0.0000000000000000e+00  -3.1308873610721995e-02 1.2934757044682283e-05 0.0000000000000000e+00  -3.1583806321092173e-02 1.0087939408627773e-05 0.0000000000000000e+00  4.6922238353244960e-05 -3.1326770352071917e-02 0.0000000000000000e+00  3.1637075024514343e-02 8.6637016988012912e-06 0.0000000000000000e+00  3.1392222079247911e-02 3.8565214923951792e-05 0.0000000000000000e+00  3.1562966254816999e-02 5.8427732093178194e-06 0.0000000000000000e+00  2.9803909829407109e-02 -1.1954881074720160e-05 0.0000000000000000e+00  3.2709832106157457e-05 3.1323390740539400e-02 0.0000000000000000e+00  -3.5018141981828993e-05 3.1568176114376033e-02 0.0000000000000000e+00  -1.7141365275106126e-05 -3.1466647379285673e-02 0.0000000000000000e+00  4.8407549352744621e-03 3.1194274385299686e-02 0.0000000000000000e+00  -3.0570539594434867e-02 -4.5206661423271800e-03 0.0000000000000000e+00  4.2744641111524878e-03 -3.0268687753091841e-02 0.0000000000000000e+00  2.2676235625044637e-05 3.1541177376309536e-02 0.0000000000000000e+00  -1.4510327548863101e-05 -3.1666436882725503e-02 0.0000000000000000e+00  -3.1614000101122572e-02 -5.5575103477148178e-05 0.0000000000000000e+00  2.9986129251208110e-02 1.4154953584277895e-05 0.0000000000000000e+00  -3.1426221443330446e-02 -1.6090412150169089e-05 0.0000000000000000e+00  3.1469708514852271e-02 -1.9775487742875649e-05 0.0000000000000000e+00  -3.1566972584140901e-02 -8.6023628774404748e-05 0.0000000000000000e+00  6.8794407611365660e-06 -3.1408754721333344e-02 0.0000000000000000e+00  4.3500785482723302e-06 3.1394836190215270e-02 0.0000000000000000e+00  3.0448837851725197e-02 8.3266967514090381e-05 0.0000000000000000e+00  3.1338383866659859e-02 -1.7333711362839445e-03 0.0000000000000000e+00  3.1515853442029514e-02 1.9214345511383540e-06 0.0000000000000000e+00  1.1926840269697525e-05 3.1471472380356053e-02 0.0000000000000000e+00  -7.1391381605687176e-05 3.1357434334556109e-02 0.0000000000000000e+00  -3.1465800781124202e-02 -1.2625114751288551e-05 0.0000000000000000e+00  -3.1384161206197865e-02 1.7522390139808081e-03 0.0000000000000000e+00  -1.1256369579028434e-03 -3.1326726529847262e-02 0.0000000000000000e+00  8.0754487825794543e-06 -3.1368197248735741e-02 0.0000000000000000e+00  -1.2552168730544980e-03 3.1559860217917582e-02 0.0000000000000000e+00  -3.1501838768709357e-02 7.8431761039330264e-05 0.0000000000000000e+00  5.0059815188243585e-05 -3.1428726878354317e-02 0.0000000000000000e+00  3.1384418892289295e-02 3.9240689783878921e-06 0.0000000000000000e+00  -3.0246512426148217e-02 -1.3736503140100037e-05 0.0000000000000000e+00  3.1577327285447036e-02 -3.7663794356619377e-06 0.0000000000000000e+00  3.0107027843732894e-02 -1.1235516091364905e-04 0.0000000000000000e+00  -3.0126102476174844e-02 -2.3632509122943973e-04 0.0000000000000000e+00  3.1643634788208131e-05 3.1414780421192626e-02 0.0000000000000000e+00  5.0911570936553806e-05 -3.1387450666540889e-02 0.0000000000000000e+00  3.0038779788361048e-02 9.1330446785447043e-04 0.0000000000000000e+00  9.9909807370466772e-04 3.1085591412628944e-02 0.0000000000000000e+00  3.8839896765436288e-05 3.1612606643053397e-02 0.0000000000000000e+00  3.0364587766867783e-02 1.3231563830125315e-05 0.0000000000000000e+00  -3.1658827672553333e-02 -7.5014828447124251e-06 0.0000000000000000e+00  -2.7648395489201793e-02 5.9502051833496595e-05 0.0000000000000000e+00  3.5428009530496726e-05 2.6792148905977892e-02 0.0000000000000000e+00  -6.1173924835338002e-06 -3.1671391265691955e-02 0.0000000000000000e+00  -1.0695450719257789e-04 -2.7274909061287399e-02 0.0000000000000000e+00  3.1665334816758553e-02 -1.8474789964955883e-05 0.0000000000000000e+00  2.7028073993025301e-02 5.3131415591425020e-05 0.0000000000000000e+00  6.5690241122449064e-06 2.7809653817407170e-02 0.0000000000000000e+00  -3.0804442461588106e-02 1.9064175328869845e-04 0.0000000000000000e+00  -6.9049759636654329e-05 -2.7779263178864030e-02 0.0000000000000000e+00  1.1756947763427992e-04 2.7904955490397926e-02 0.0000000000000000e+00  -2.5859963336799509e-05 -2.7691692644213839e-02 0.0000000000000000e+00  8.7073377242283187e-03 8.4875013535431146e-03 0.0000000000000000e+00  1.6472852058303025e-02 1.9132402139858298e-02 0.0000000000000000e+00  -2.1930041877541067e-03 1.0927448578966823e-02 0.0000000000000000e+00  1.1875463894312839e-03 -3.1103319493843602e-02 0.0000000000000000e+00  -3.1034272140581718e-02 -1.0612380904002701e-03 0.0000000000000000e+00  -1.6557923996478069e-05 3.1355185208683009e-02 0.0000000000000000e+00  7.1373043217949363e-06 -3.1414234406731661e-02 0.0000000000000000e+00  0.0000000000000000e+00 0.0000000000000000e+00 0.0000000000000000e+00  0.0000000000000000e+00 0.0000000000000000e+00 0.0000000000000000e+00  1.4251980146548048e-03 -2.6840755800813153e-02 0.0000000000000000e+00  -2.6942034161626764e-02 -8.8512025151448923e-04 0.0000000000000000e+00  -1.0191679153672752e-02 -2.6256807159338908e-03 0.0000000000000000e+00  1.6849536414521415e-02 -2.1781018265483221e-02 0.0000000000000000e+00  -2.6998211853295186e-02 -1.3164681431163554e-02 0.0000000000000000e+00  2.6881159440079311e-02 7.6045404688710252e-04 0.0000000000000000e+00  2.0239101408687173e-04 2.6555215363356529e-02 0.0000000000000000e+00  2.7006870196809021e-03 -1.0092766858040099e-02 0.0000000000000000e+00  0.0000000000000000e+00 0.0000000000000000e+00 0.0000000000000000e+00  2.8154508961609537e-02 -4.5749317217179121e-04 0.0000000000000000e+00  -3.1828294280847763e-03 -3.1349172291113302e-02 0.0000000000000000e+00  0.0000000000000000e+00 0.0000000000000000e+00 0.0000000000000000e+00  1.1948604725013530e-04 -2.8003357135689175e-02 0.0000000000000000e+00  0.0000000000000000e+00 0.0000000000000000e+00 0.0000000000000000e+00  1.5587624386334068e-04 2.8545394137120740e-02 0.0000000000000000e+00  -2.8650784223774407e-02 -2.3832535729258585e-04 0.0000000000000000e+00  0.0000000000000000e+00 0.0000000000000000e+00 0.0000000000000000e+00  0.0000000000000000e+00 0.0000000000000000e+00 0.0000000000000000e+00  0.0000000000000000e+00 0.0000000000000000e+00 0.0000000000000000e+00  1.8966797398075600e-05 -3.1598573041371626e-02 0.0000000000000000e+00  -5.3949692891883018e-05 3.1536766436401777e-02 0.0000000000000000e+00  3.1639054946060431e-02 8.0349988248919800e-06 0.0000000000000000e+00  3.1165907860128250e-02 -4.7733548326116157e-04 0.0000000000000000e+00  -3.1517473172825383e-02 -2.8127859537742299e-05 0.0000000000000000e+00  2.2403974552199681e-05 -3.1545941988916901e-02 0.0000000000000000e+00  3.8135838952857014e-05 3.1502097070419448e-02 0.0000000000000000e+00  -3.1670398213225516e-02 5.8581506632570257e-06 0.0000000000000000e+00  2.7404688407277989e-02 9.6509744214305679e-07 0.0000000000000000e+00  0.0000000000000000e+00 0.0000000000000000e+00 0.0000000000000000e+00  0.0000000000000000e+00 0.0000000000000000e+00 0.0000000000000000e+00  6.3125416603583204e-04 -2.8670917145613203e-02 0.0000000000000000e+00  -1.5186985654328436e-04 2.8673457892881601e-02 0.0000000000000000e+00  0.0000000000000000e+00 0.0000000000000000e+00 0.0000000000000000e+00  -3.0525330994089390e-02 4.0431654322206309e-04 0.0000000000000000e+00  0.0000000000000000e+00 0.0000000000000000e+00 0.0000000000000000e+00  0.0000000000000000e+00 0.0000000000000000e+00 0.0000000000000000e+00  3.0592939612313793e-02 9.4149916555640693e-05 0.0000000000000000e+00  -3.0364687218250263e-02 -3.7833253874887586e-05 0.0000000000000000e+00  0.0000000000000000e+00 0.0000000000000000e+00 0.0000000000000000e+00  0.0000000000000000e+00 0.0000000000000000e+00 0.0000000000000000e+00  -1.4725150916159665e-02 -2.3029611505389173e-02 0.0000000000000000e+00  -3.1478210614908095e-05 -3.1379945114900894e-02 0.0000000000000000e+00  -3.1400052978743820e-02 9.3390292949518253e-05 0.0000000000000000e+00  3.1526698573239940e-02 3.9873687001865798e-07 0.0000000000000000e+00  2.6801234733227786e-05 3.1634025004165463e-02 0.0000000000000000e+00  -2.8663555671904060e-02 -1.4230628135890878e-04 0.0000000000000000e+00  1.7660682305660242e-04 2.8361260261502128e-02 0.0000000000000000e+00  -2.8932375885867615e-05 2.8104758768092594e-02 0.0000000000000000e+00  9.2306329584353726e-05 -2.8189023530207725e-02 0.0000000000000000e+00  3.4731004129923125e-05 -3.1415728664545596e-02 0.0000000000000000e+00  0.0000000000000000e+00 0.0000000000000000e+00 0.0000000000000000e+00  4.4441115513010266e-06 -3.1365917050836384e-02 0.0000000000000000e+00  -1.6277580496968695e-02 3.2853476948419506e-03 0.0000000000000000e+00  -2.4514875318677156e-02 1.6487893450243866e-02 0.0000000000000000e+00  2.8412448360311707e-02 1.3274611925423946e-02 0.0000000000000000e+00  -2.2434179378567243e-03 -2.9727043399669126e-02 0.0000000000000000e+00  8.8077108437322367e-03 9.4043426200991214e-05 0.0000000000000000e+00  -2.8902742475213739e-02 -2.8427946292107026e-04 0.0000000000000000e+00  1.0553905725536921e-05 -2.8866899070866616e-02 0.0000000000000000e+00  -2.9985153738557339e-04 2.8880656593738868e-02 0.0000000000000000e+00  2.8594212108906641e-02 4.2291197343538394e-05 0.0000000000000000e+00  2.8652285005010776e-02 1.5797336849662972e-05 0.0000000000000000e+00  2.5587666940651962e-04 3.1160227943272854e-02 0.0000000000000000e+00  2.8794876398301403e-02 5.0068801619634234e-04 0.0000000000000000e+00  4.1230991354633966e-05 -3.1616331280781548e-02 0.0000000000000000e+00  2.7914726503685743e-05 3.1626256308405321e-02 0.0000000000000000e+00  3.1481577954974520e-02 3.1510528657854616e-05 0.0000000000000000e+00  -3.1602013396513653e-02 5.9447426029546617e-05 0.0000000000000000e+00  -2.7998269685902150e-02 2.3589581651064373e-04 0.0000000000000000e+00  -2.4752762700599350e-04 -3.1114212021348338e-02 0.0000000000000000e+00  -2.2405117250837072e-04 -2.7770402278334411e-02 0.0000000000000000e+00  -3.1112096848684368e-02 6.0394946203759406e-04 0.0000000000000000e+00  3.1651094264431058e-02 2.4489988432582672e-05 0.0000000000000000e+00  1.0544127892531942e-05 3.1571316466378244e-02 0.0000000000000000e+00  3.1119078436980748e-02 5.0104564372143768e-04 0.0000000000000000e+00  -3.6935644282816930e-03 1.9467555686686216e-02 0.0000000000000000e+00  0.0000000000000000e+00 0.0000000000000000e+00 0.0000000000000000e+00  0.0000000000000000e+00 0.0000000000000000e+00 0.0000000000000000e+00  0.0000000000000000e+00 0.0000000000000000e+00 0.0000000000000000e+00  -1.0343299881142002e-05 3.1645211242197852e-02 0.0000000000000000e+00  2.7603874357545767e-05 3.1500517436842602e-02 0.0000000000000000e+00  3.5863888328464552e-05 -3.1542308513764737e-02 0.0000000000000000e+00  -3.1439356347044832e-02 -6.5123908421729185e-06 0.0000000000000000e+00  0.0000000000000000e+00 0.0000000000000000e+00 0.0000000000000000e+00  -1.0350879067562718e-05 -3.1609904812222561e-02 0.0000000000000000e+00  0.0000000000000000e+00 0.0000000000000000e+00 0.0000000000000000e+00  -2.7844884106560854e-02 -3.1094754599889692e-05 0.0000000000000000e+00  -5.4622358443565573e-05 -3.1529384983201666e-02 0.0000000000000000e+00  -2.4826721104889227e-03 2.9052983547705597e-02 0.0000000000000000e+00  -4.0695487714611997e-03 3.0743930663294231e-02 0.0000000000000000e+00  -3.1642533736053899e-02 4.6499723770619245e-06 0.00