<?xml version="1.0"?>
<VTKFile type="UnstructuredGrid"  version="0.1"  >
<UnstructuredGrid>
<Piece  NumberOfPoints="778" NumberOfCells="1401">
<Points>
<DataArray  type="Float64"  NumberOfComponents="3"  format="ascii">1 -1 0  6 -1 0  6 1 0  1 1 0  1 6 0  -1 6 0  -1 1 0  -6 1 0  -6 -1 0  -1 -1 0  -1 -6 0  1 -6 0  1 3.5 0  -1 3.5 0  -1 -3.5 0  1 -3.5 0  3.5 -1 0  3.5 1 0  -3.5 -1 0  -3.5 1 0  -1 -2.25 0  1 -2.25 0  2.25 -1 0  2.25 1 0  -1 2.25 0  1 2.25 0  -1 4.75 0  1 4.75 0  -4.75 -1 0  -4.75 1 0  -2.25 1 0  -2.25 -1 0  1 -4.75 0  -1 -4.75 0  4.75 1 0  4.75 -1 0  0 0 0  -2.875 0 0  -1.625 0 0  -4.125 0 0  -6 0 0  0 2.875 0  2.875 0 0  0 6 0  1.625 0 0  0 -2.875 0  0 -1.625 0  0 1.625 0  0 4.125 0  0 -6 0  0 -4.125 0  4.125 0 0  6 0 0  -0.109375 5.0625 0  -5.0625 -0.109375 0  -0.109375 -5.0625 0  5.0625 0.109375 0  0.8125 -0.1875 0  -0.1875 -0.8125 0  -0.8125 0.1875 0  -0.1875 0.8125 0  1 5.375 0  -5.375 1 0  1 -5.375 0  5.375 -1 0  0.53515625 0.46484375 0  -5.375 -1 0  -1 5.375 0  -1 -5.375 0  -0.5 -6 0  5.375 1 0  6 0.5 0  3.5 0.3046875 0  3.43125 -0.34765625 0  2.875 -1 0  4.125 1 0  0.3046875 3.5 0  -0.34765625 3.56875 0  -1 4.125 0  1 4.125 0  -0.3046875 2.25 0  0.34765625 2.18125 0  1 1.625 0  -1 -1.625 0  -0.3046875 -3.5 0  0.34765625 -3.56875 0  1 -4.125 0  0.3046875 -2.25 0  -0.34765625 -2.18125 0  -1 -4.125 0  -1 -2.875 0  1 -2.875 0  1 -1.625 0  1.625 -1 0  1.625 1 0  2.25 0.3046875 0  2.18125 -0.34765625 0  4.125 -1 0  2.875 1 0  1 2.875 0  -1 1.625 0  -1 2.875 0  -4.125 -1 0  -2.25 0.3046875 0  -2.31875 -0.34765625 0  -2.875 -1 0  -1.625 1 0  -4.125 1 0  -3.5 0.3046875 0  -3.56875 -0.34765625 0  -1.625 -1 0  -2.875 1 0  0.380626321794301 1.06853329530276 0  -1.110819327731092 -0.3739495798319328 0  0.3739495798319328 -1.110819327731092 0  1.151210293219304 0.3991939332620648 0  -0.5 -4.4375 0  0.5 -4.4375 0  5.481553398058253 -0.3712833737864077 0  0.5 4.4375 0  0.5 6 0  -0.522503783594538 -0.3265648647465863 0  -1.3125 0.5 0  -0.5 6 0  0.3265648647465863 -0.522503783594538 0  4.4375 0.5 0  4.4375 -0.5 0  0.5 -6 0  -6 -0.5 0  -5.481553398058253 0.3712833737864077 0  -4.55 -0.4296875 0  -4.4375 0.5 0  -0.5 4.4375 0  0.4792930825242718 5.026881067961165 0  0.4792930825242718 -5.026881067961165 0  -0.5 1.3125 0  1.3125 -0.5 0  -0.5 -1.3125 0  0.25 5.518539952962044 0  0.2125133872612723 -5.500076563152851 0  4.969341874373811 -0.5152550785163683 0  -4.969341874373811 0.5152550785163683 0  3.927189744345589 -0.4712876597840069 0  -5.554036458333333 -0.25 0  5.554036458333333 0.25 0  -0.4690710616438356 -5.462756849315069 0  -0.4690710616438356 5.462756849315069 0  -6 0.5 0  -1.59556436210848 -0.5 0  -3.058421751829955 -0.5 0  -0.5 2.731982421875 0  0.5 2.691578248170045 0  2.691578248170045 -0.5 0  1.641211254104555 0.5 0  0.5 -1.768017578125 0  0.5 -3.058421751829955 0  0.5 1.699267578125 0  3.018017578125 0.5 0  -0.5 -3.018017578125 0  -2.731982421875 0.5 0  6 -0.5 0  -4.050017120925308 -0.5006099332648871 0  -3.940668202764977 0.5371363767281105 0  3.940668202764977 0.5371363767281105 0  0.4517449476047904 3.958458083832335 0  -0.4517449476047904 -3.958458083832335 0  -1.809331797235023 0.5371363767281105 0  -0.4517449476047904 1.791541916167665 0  -0.0546875 4.59375 0  -5.006445312499999 -0.58984375 0  4.605643203883496 -0.04725424757281554 0  4.90625 0.5546875 0  -0.5546875 4.90625 0  0.04725424757281554 -4.605643203883496 0  -0.586116118210531 -4.995821561900013 0  -4.603710222472543 0.04846236095466061 0  -3.1875 0.65234375 0  0.6163907621110913 3.147502300973589 0  2.5625 0.65234375 0  0.6163907621110913 -2.602497699026411 0  -0.637456713551384 3.189259902731882 0  -0.637456713551384 -2.560740097268118 0  -0.34765625 0.34765625 0  -0.639453125 0.708203125 0  0.089630126953125 0.437286376953125 0  -0.4238281249999999 -1.746875 0  1.746875 -0.4238281249999999 0  -0.4238281249999999 4.003125 0  0.4238281249999999 -4.003125 0  -2.5625 -1 0  3.1875 -1 0  -0.09375 -1.21875 0  1.21875 -0.09375 0  0.4020305405760241 -0.1120343241705621 0  -0.6280191027904287 -0.7577505545748082 0  0.90625 -0.59375 0  -1.205500904741459 0.03633725387965409 0  -0.02129048848213058 1.202028574265107 0  -0.1120343241705621 -0.4020305405760241 0  1 1.3125 0  -2.003587563743074 -0.6442361556699288 0  0.6640077663259718 -1.395873598614549 0  5.6875 -1 0  0.6308138580859101 -5.592151086468728 0  -5.6875 -1 0  0.6568032075915271 5.612942566073222 0  5.616530031741774 0.6612875396772174 0  -5.6875 1 0  1.9375 1 0  -1.3125 -1 0  0.1524679547155687 -3.232579139388032 0  0.1524679547155687 2.517420860611968 0  -3.232579139388032 -0.1524679547155687 0  -1.932320553757026 -0.252759244693845 0  2.517420860611968 -0.1524679547155687 0  -0.04776045819569434 -2.464949198504599 0  -0.2420369079104247 3.187693796852321 0  3.751304711039982 -0.1203080877045035 0  -5.397601941771943 -0.609026059866711 0  1.3125 1 0  1.9375 -1 0  -0.6946315101963667 -2.018229242739021 0  -0.6946315101963667 3.731770757260979 0  1 -3.8125 0  2.014364435550335 0.6166648446293641 0  -1 5.6875 0  -1 -5.6875 0  -2.653476149871182 -0.5942957192996303 0  3.096523850128818 -0.5942957192996303 0  1 1.9375 0  -3.8125 -1 0  0.586975531244212 -0.7975955463807081 0  -0.2946248980953088 -4.743710873809568 0  2.625453376770019 0.2814788818359375 0  -3.124546623229981 0.2814788818359375 0  -0.1204856417894853 5.631800603217465 0  5.253862011026742 0.6581468962876398 0  -0.65234375 2.108701557941197 0  0.65234375 3.641298442058803 0  -0.65234375 -3.641298442058803 0  -0.25 -5.744880569758637 0  -4.4375 -1 0  -0.3166212631734941 -2.713595940002554 0  0.6591479224207506 0.1324305912687024 0  0.8660781906552419 0.6468634238104103 0  -0.9887189158197679 0.6452930723873549 0  0.3149351927204296 -1.460971774996065 0  -0.3572852727880474 -0.009629022788047503 0  2.09375 -0.6866724363772454 0  0.6866724363772454 -3.65625 0  0.6866724363772454 2.09375 0  -3.65625 -0.6866724363772454 0  -3.5371337890625 0.65234375 0  -0.1389584113023952 1.944025352615082 0  -2.151744288472698 0.65234375 0  -0.1389584113023951 -3.805974647384918 0  0.1389584113023951 3.805974647384918 0  -2.578772109813904 0.1857224367977529 0  3.171227890186096 0.1857224367977529 0  3.360315647536819 0.65234375 0  0.1857224367977528 -1.921227890186096 0  0.65234375 -2.110315647536819 0  1.894016528727564 0.2415406141485869 0  -3.738232421875 0 0  0.2516875549238616 3.139069895099618 0  -1.913724396854074 0.2011142179916434 0  0.1669456568161915 0.7843410671359501 0  -2.5625 1 0  -1 -3.1875 0  -1 2.5625 0  0.1736601499778735 4.857955663330752 0  -0.1893536587212888 2.577300639071919 0  -0.1893536587212888 -3.172699360928081 0  3.852271904453858 0.206603749322895 0  -3.8125 1 0  -0.1250095034621793 -5.421707592768541 0  3.8125 -1 0  3.617304217264373 -0.6578427703661498 0  0.2630176195580202 -2.636558318495885 0  0.2674330357770522 1.399517071108871 0  0.631726413079416 1.339254523727593 0  4.700571879807737 0.2813704945051134 0  0.7143844363649634 -3.319538455208831 0  2.430461544791169 -0.7143844363649634 0  0.7143844363649634 2.430461544791169 0  -3.319538455208831 -0.7143844363649634 0  5.687045771608623 -0.6520598572553891 0  -5.687045771608623 0.6520598572553891 0  -1.15625 -0.7048248829733235 0  3.438284572973296 -0.01860298867862281 0  -0.03021088078697859 3.451572359862192 0  2.216682837011589 -0.02159585961918548 0  -2.191580885932936 -0.03126387444658879 0  0.1857410764408683 1.895679405349457 0  3.103473238297955 -0.253270943723272 0  -2.646526761702045 -0.253270943723272 0  -2.333137350671861 -0.6791984914172315 0  -1 5.0625 0  -0.6971235589909319 5.213002544375844 0  0.01618705363819947 2.225929180591695 0  0.01618705363819947 -3.524070819408305 0  0.5690054882403073 0.7951310720450595 0  -0.5764940424412852 -3.329579265180942 0  -0.5764940424412852 2.420420734819058 0  3.8125 1 0  -5.372163860234628 0.04365139563106807 0  5.164108319316826 -0.225040894204947 0  -5.361952437854323 0.6744012088984681 0  -5.0625 1 0  5.286835586913878 -0.6616705837083201 0  -5.692815197359722 0.1186699900166531 0  5.663425996156958 -0.07763197815533956 0  -0.9219866027132193 -0.1143045829323572 0  -1.394333629759332 -0.2233077430199216 0  0.09322478991596644 -0.9616596638655462 0  5.0625 -1 0  -0.14412109375 -1.92169189453125 0  -4.28125 -0.7212148987671345 0  0.2649796277366407 0.1735162902120744 0  -4.907855692236596 0.1868230509619793 0  -1.9375 1 0  1 5.0625 0  0.6915124486819284 -5.272938212550202 0  0.683483242673902 5.284948082526911 0  2.5625 -1 0  -1 -3.8125 0  -1 1.9375 0  5.0625 1 0  -1 -1.9375 0  1 5.6875 0  1 -5.6875 0  -1.9375 -1 0  -1 -2.5625 0  -1 3.1875 0  1 -3.1875 0  1 -2.5625 0  1 2.5625 0  1 3.1875 0  -5.0625 -1 0  -1 -1.3125 0  1.3125 -1 0  -1 1.3125 0  -1 3.8125 0  -1 4.4375 0  -4.4375 1 0  4.4375 -1 0  4.4375 1 0  -1.3125 1 0  1 4.4375 0  1 -4.4375 0  -1 -5.0625 0  -1 -4.4375 0  -3.1875 1 0  2.5625 1 0  1 -1.9375 0  1 -1.3125 0  5.6875 1 0  1 3.8125 0  3.1875 1 0  -3.1875 -1 0  1 -5.0625 0  1.35138038998199 0.6675097549271188 0  -0.465625 0.986328125 0  1.435958105992309 0.2563920171199723 0  1.915914614192913 -0.145782394639918 0  -0.8764440609469509 -0.5746869313612541 0  5.355194559946098 0.01566259380337612 0  -5.69333042954964 -0.5242868300459975 0  1.78125 -0.7320750794491524 0  0.7320750794491525 -3.96875 0  -0.3959075548864684 5.166422468926435 0  -4.770522389068053 -0.2123670725088856 0  -4.714160156249999 -0.69234375 0  -4.273484403713342 -0.278160994327167 0  0.9642590244517505 0.08196089404241463 0  0.3500261717645397 -4.727285205957206 0  0.6740868006020392 -4.765147848348443 0  0.6797550207247084 -1.089747806381148 0  -5.186479934354063 0.3046329157552757 0  -5.263288238215326 -0.3369092276308425 0  -2.433484016245305 0.5442571297016638 0  0.1707808983307866 -3.82363304980935 0  -0.1554012991031027 3.867535742674252 0  4.855508096805579 -0.2283975605264581 0  3.644517238097614 0.5646428152488787 0  0.05699603874439441 -0.6452791208413911 0  -0.3550018917972689 -0.5695324323732931 0  0.6
[...]
<PointData  Vectors="u"> 
<DataArray  type="Float64"  Name="u"  NumberOfComponents="3" format="ascii">0.0000000000000000e+00 0.0000000000000000e+00 0.0000000000000000e+00  0.0000000000000000e+00 0.0000000000000000e+00 0.0000000000000000e+00  0.0000000000000000e+00 0.0000000000000000e+00 0.0000000000000000e+00  0.0000000000000000e+00 0.0000000000000000e+00 0.0000000000000000e+00  0.0000000000000000e+00 0.0000000000000000e+00 0.0000000000000000e+00  0.0000000000000000e+00 0.0000000000000000e+00 0.0000000000000000e+00  0.0000000000000000e+00 0.0000000000000000e+00 0.0000000000000000e+00  0.0000000000000000e+00 0.0000000000000000e+00 0.0000000000000000e+00  0.0000000000000000e+00 0.0000000000000000e+00 0.0000000000000000e+00  0.0000000000000000e+00 0.0000000000000000e+00 0.0000000000000000e+00  0.0000000000000000e+00 0.0000000000000000e+00 0.0000000000000000e+00  0.0000000000000000e+00 0.0000000000000000e+00 0.0000000000000000e+00  0.0000000000000000e+00 0.0000000000000000e+00 0.0000000000000000e+00  0.0000000000000000e+00 0.0000000000000000e+00 0.0000000000000000e+00  0.0000000000000000e+00 0.0000000000000000e+00 0.0000000000000000e+00  0.0000000000000000e+00 0.0000000000000000e+00 0.0000000000000000e+00  0.0000000000000000e+00 0.0000000000000000e+00 0.0000000000000000e+00  0.0000000000000000e+00 0.0000000000000000e+00 0.0000000000000000e+00  0.0000000000000000e+00 0.0000000000000000e+00 0.0000000000000000e+00  0.0000000000000000e+00 0.0000000000000000e+00 0.0000000000000000e+00  0.0000000000000000e+00 0.0000000000000000e+00 0.0000000000000000e+00  0.0000000000000000e+00 0.0000000000000000e+00 0.0000000000000000e+00  0.0000000000000000e+00 0.0000000000000000e+00 0.0000000000000000e+00  0.0000000000000000e+00 0.0000000000000000e+00 0.0000000000000000e+00  0.0000000000000000e+00 0.0000000000000000e+00 0.0000000000000000e+00  0.0000000000000000e+00 0.0000000000000000e+00 0.0000000000000000e+00  0.0000000000000000e+00 0.0000000000000000e+00 0.0000000000000000e+00  0.0000000000000000e+00 0.0000000000000000e+00 0.0000000000000000e+00  0.0000000000000000e+00 0.0000000000000000e+00 0.0000000000000000e+00  0.0000000000000000e+00 0.0000000000000000e+00 0.0000000000000000e+00  0.0000000000000000e+00 0.0000000000000000e+00 0.0000000000000000e+00  0.0000000000000000e+00 0.0000000000000000e+00 0.0000000000000000e+00  0.0000000000000000e+00 0.0000000000000000e+00 0.0000000000000000e+00  0.0000000000000000e+00 0.0000000000000000e+00 0.0000000000000000e+00  0.0000000000000000e+00 0.0000000000000000e+00 0.0000000000000000e+00  0.0000000000000000e+00 0.0000000000000000e+00 0.0000000000000000e+00  -1.3265693276334425e-04 4.0642534904906753e-05 0.0000000000000000e+00  2.2333270454921776e-02 -6.1340040103220589e-06 0.0000000000000000e+00  2.1248651381817620e-02 5.7670527189797807e-05 0.0000000000000000e+00  2.2345755854171936e-02 1.9892989153872272e-07 0.0000000000000000e+00  2.2369837161468988e-02 1.9242866805222627e-05 0.0000000000000000e+00  5.3634289139534638e-06 2.2298718409820010e-02 0.0000000000000000e+00  -2.2280235068638934e-02 2.5208952572128940e-05 0.0000000000000000e+00  2.0053343957161614e-05 2.2301337042447918e-02 0.0000000000000000e+00  -2.1292220812208267e-02 7.4097221244482037e-05 0.0000000000000000e+00  6.9434941149904205e-06 -2.2299864845327394e-02 0.0000000000000000e+00  -2.6501239653703514e-05 -2.1130775603256952e-02 0.0000000000000000e+00  2.3342213715078015e-05 2.1125325048389543e-02 0.0000000000000000e+00  2.2527569533753986e-05 2.2308112753218576e-02 0.0000000000000000e+00  2.2008318530774904e-05 -2.2301191024023365e-02 0.0000000000000000e+00  3.1054451184819734e-05 -2.2337596709398302e-02 0.0000000000000000e+00  -2.2356909659442824e-02 -4.5937473858154115e-06 0.0000000000000000e+00  -2.2325024709801588e-02 -2.1512746741323250e-05 0.0000000000000000e+00  -2.4175767781802394e-05 2.2360997560099898e-02 0.0000000000000000e+00  2.2302332211049849e-02 -2.1177945666565394e-05 0.0000000000000000e+00  -3.3624700177261489e-05 -2.2169161079954772e-02 0.0000000000000000e+00  -2.2241621801200609e-02 -2.5000047291046677e-05 0.0000000000000000e+00  -1.4359158243187316e-02 -3.0511452309395747e-03 0.0000000000000000e+00  2.8118371792430030e-03 -1.4023642739159209e-02 0.0000000000000000e+00  1.3973755467471963e-02 3.0680501915714416e-03 0.0000000000000000e+00  3.0069701741728206e-03 1.4041826938305418e-02 0.0000000000000000e+00  0.0000000000000000e+00 0.0000000000000000e+00 0.0000000000000000e+00  0.0000000000000000e+00 0.0000000000000000e+00 0.0000000000000000e+00  0.0000000000000000e+00 0.0000000000000000e+00 0.0000000000000000e+00  0.0000000000000000e+00 0.0000000000000000e+00 0.0000000000000000e+00  -9.9214933707034020e-03 8.2615001366302416e-03 0.0000000000000000e+00  0.0000000000000000e+00 0.0000000000000000e+00 0.0000000000000000e+00  0.0000000000000000e+00 0.0000000000000000e+00 0.0000000000000000e+00  0.0000000000000000e+00 0.0000000000000000e+00 0.0000000000000000e+00  4.2010121067101263e-05 -2.1299919811088645e-02 0.0000000000000000e+00  0.0000000000000000e+00 0.0000000000000000e+00 0.0000000000000000e+00  -2.2262649949463042e-02 -3.6815990790900267e-06 0.0000000000000000e+00  -2.2123479243429178e-02 3.6786062347569547e-05 0.0000000000000000e+00  -2.2058233722226313e-02 -5.9840652828746785e-06 0.0000000000000000e+00  0.0000000000000000e+00 0.0000000000000000e+00 0.0000000000000000e+00  0.0000000000000000e+00 0.0000000000000000e+00 0.0000000000000000e+00  1.0658381028528308e-05 2.2238170970152939e-02 0.0000000000000000e+00  -7.6441717510201612e-06 2.2231980455118597e-02 0.0000000000000000e+00  0.0000000000000000e+00 0.0000000000000000e+00 0.0000000000000000e+00  0.0000000000000000e+00 0.0000000000000000e+00 0.0000000000000000e+00  1.0814944128808809e-04 2.2024139472770526e-02 0.0000000000000000e+00  -1.8301173056074565e-04 2.2163770189681322e-02 0.0000000000000000e+00  0.0000000000000000e+00 0.0000000000000000e+00 0.0000000000000000e+00  0.0000000000000000e+00 0.0000000000000000e+00 0.0000000000000000e+00  3.7186379799914486e-05 -2.2143663131147320e-02 0.0000000000000000e+00  7.6808366646685134e-06 -2.2263359958239186e-02 0.0000000000000000e+00  0.0000000000000000e+00 0.0000000000000000e+00 0.0000000000000000e+00  -1.0262900416885245e-04 -2.2211091613084488e-02 0.0000000000000000e+00  2.2048768478793158e-04 -2.2111529896124405e-02 0.0000000000000000e+00  0.0000000000000000e+00 0.0000000000000000e+00 0.0000000000000000e+00  0.0000000000000000e+00 0.0000000000000000e+00 0.0000000000000000e+00  0.0000000000000000e+00 0.0000000000000000e+00 0.0000000000000000e+00  0.0000000000000000e+00 0.0000000000000000e+00 0.0000000000000000e+00  0.0000000000000000e+00 0.0000000000000000e+00 0.0000000000000000e+00  0.0000000000000000e+00 0.0000000000000000e+00 0.0000000000000000e+00  -2.1951613917591747e-02 1.7600851512594265e-04 0.0000000000000000e+00  -2.2148989065861172e-02 -1.5535618181750015e-04 0.0000000000000000e+00  0.0000000000000000e+00 0.0000000000000000e+00 0.0000000000000000e+00  0.0000000000000000e+00 0.0000000000000000e+00 0.0000000000000000e+00  0.0000000000000000e+00 0.0000000000000000e+00 0.0000000000000000e+00  0.0000000000000000e+00 0.0000000000000000e+00 0.0000000000000000e+00  0.0000000000000000e+00 0.0000000000000000e+00 0.0000000000000000e+00  0.0000000000000000e+00 0.0000000000000000e+00 0.0000000000000000e+00  2.1950206610312262e-02 2.0045832701202110e-04 0.0000000000000000e+00  2.2025091486312091e-02 -1.2987435203379554e-04 0.0000000000000000e+00  0.0000000000000000e+00 0.0000000000000000e+00 0.0000000000000000e+00  0.0000000000000000e+00 0.0000000000000000e+00 0.0000000000000000e+00  0.0000000000000000e+00 0.0000000000000000e+00 0.0000000000000000e+00  2.1989264702255908e-02 3.6330300828713420e-05 0.0000000000000000e+00  2.2284749009785519e-02 1.0204906851286388e-05 0.0000000000000000e+00  0.0000000000000000e+00 0.0000000000000000e+00 0.0000000000000000e+00  0.0000000000000000e+00 0.0000000000000000e+00 0.0000000000000000e+00  -4.1233108071030769e-03 1.8494852826316289e-02 0.0000000000000000e+00  1.9078863371705574e-02 -4.2032967458239239e-03 0.0000000000000000e+00  -3.8280347344925281e-03 -1.9326069519326503e-02 0.0000000000000000e+00  -1.9533307055032922e-02 3.7102899851716355e-03 0.0000000000000000e+00  3.2520480364762596e-05 -2.1157180333850854e-02 0.0000000000000000e+00  -6.0299294187339331e-06 -2.2225877826866025e-02 0.0000000000000000e+00  -2.2112676300019982e-02 -2.4655683772382374e-05 0.0000000000000000e+00  -7.0068588878086821e-07 2.2189621901443461e-02 0.0000000000000000e+00  4.4510179443782566e-05 2.2059691119302952e-02 0.0000000000000000e+00  9.3609472695921313e-03 -5.8573547646472920e-03 0.0000000000000000e+00  2.1252364457693341e-02 3.0493659093602603e-03 0.0000000000000000e+00  2.9833461175748212e-05 2.1270751611069682e-02 0.0000000000000000e+00  -5.5000039482183388e-03 -9.2456552630872466e-03 0.0000000000000000e+00  -2.1977503002547600e-02 1.9788275833110131e-05 0.0000000000000000e+00  -2.2239452692222203e-02 9.3407564885766695e-06 0.0000000000000000e+00  4.5610909276504641e-05 -2.1996307469638741e-02 0.0000000000000000e+00  2.2283214796581408e-02 1.0275118784282175e-05 0.0000000000000000e+00  2.2065793346149880e-02 2.9488274111646704e-05 0.0000000000000000e+00  2.2202318009287601e-02 5.3677630746946841e-06 0.0000000000000000e+00  2.0991341892415548e-02 -9.3459452092101986e-06 0.0000000000000000e+00  3.0521777747624334e-05 2.2027487052575876e-02 0.0000000000000000e+00  -2.9137434130604369e-05 2.2225356373582379e-02 0.0000000000000000e+00  -1.1448888706340534e-05 -2.2126860958135722e-02 0.0000000000000000e+00  3.4771232219205752e-03 2.1933126857854521e-02 0.0000000000000000e+00  -2.1462553753372707e-02 -3.2508280977092182e-03 0.0000000000000000e+00  3.0094980985237540e-03 -2.1294185798794961e-02 0.0000000000000000e+00  1.6647730482772285e-05 2.2247354629455224e-02 0.0000000000000000e+00  -9.3555962850886130e-06 -2.2353918990383807e-02 0.0000000000000000e+00  -2.2257274460551434e-02 -4.6003256977756498e-05 0.0000000000000000e+00  2.1068346969764108e-02 1.3945761551646566e-05 0.0000000000000000e+00  -2.2082449620729860e-02 -1.0899942020532206e-05 0.0000000000000000e+00  2.2143792962192693e-02 -6.9376719151846154e-06 0.0000000000000000e+00  -2.2260987748266077e-02 -5.9354129183811111e-05 0.0000000000000000e+00  8.4187089340093902e-06 -2.2093917159048786e-02 0.0000000000000000e+00  2.8610297530256846e-06 2.2072290513806738e-02 0.0000000000000000e+00  2.1453395987698552e-02 6.2902177168440023e-05 0.0000000000000000e+00  2.2056262155574439e-02 -1.2488190679657569e-03 0.0000000000000000e+00  2.2163349275634237e-02 -1.6207334270594755e-06 0.0000000000000000e+00  1.4136699988073903e-05 2.2123107741463886e-02 0.0000000000000000e+00  -5.5501921332675912e-05 2.2035764802620646e-02 0.0000000000000000e+00  -2.2123674448287372e-02 -7.1441867934453123e-06 0.0000000000000000e+00  -2.2092885920821911e-02 1.2715047165283112e-03 0.0000000000000000e+00  -8.3535375497819579e-04 -2.2084132720170530e-02 0.0000000000000000e+00  1.0388666894888931e-05 -2.2036227546862769e-02 0.0000000000000000e+00  -9.2390568804855513e-04 2.2245542420452968e-02 0.0000000000000000e+00  -2.2198685363334913e-02 6.0025490138330356e-05 0.0000000000000000e+00  3.1851147310468867e-05 -2.2102700257849051e-02 0.0000000000000000e+00  2.2037921274059014e-02 2.6335573065568259e-06 0.0000000000000000e+00  -2.1261511723428331e-02 -4.1672213006091754e-06 0.0000000000000000e+00  2.2236564087007419e-02 -3.3430129798473999e-06 0.0000000000000000e+00  2.1171714467894284e-02 -7.9464868211116780e-05 0.0000000000000000e+00  -2.1196369335626096e-02 -1.6365189962846795e-04 0.0000000000000000e+00  2.6419005490829775e-05 2.2078658652789570e-02 0.0000000000000000e+00  3.6038280487488212e-05 -2.2052223224945718e-02 0.0000000000000000e+00  2.1183119619594511e-02 6.5899449321770061e-04 0.0000000000000000e+00  7.2710719816389215e-04 2.1896825059140146e-02 0.0000000000000000e+00  2.8795373753187733e-05 2.2308627047479032e-02 0.0000000000000000e+00  2.1344487889638691e-02 9.8314538366510757e-07 0.0000000000000000e+00  -2.2343430010455013e-02 -5.4909877812782114e-06 0.0000000000000000e+00  -1.9255480881289720e-02 4.3506377115277143e-05 0.0000000000000000e+00  2.3275079405578721e-05 1.8573223688264612e-02 0.0000000000000000e+00  -3.8374381336051797e-06 -2.2349338865023376e-02 0.0000000000000000e+00  -6.9269500424746553e-05 -1.8945593144803735e-02 0.0000000000000000e+00  2.2337405088954071e-02 -1.1335439993861065e-05 0.0000000000000000e+00  1.8670609772783016e-02 3.4126135978375842e-05 0.0000000000000000e+00  -1.9231964772356347e-06 1.9326432940887706e-02 0.0000000000000000e+00  -2.1644559154258565e-02 1.3837551270485428e-04 0.0000000000000000e+00  -3.8063065213585859e-05 -1.9306215241115959e-02 0.0000000000000000e+00  7.6737267919682568e-05 1.9309493773868366e-02 0.0000000000000000e+00  -9.1594448859478223e-06 -1.9062439965521726e-02 0.0000000000000000e+00  6.1157927202946348e-03 5.9319694872417813e-03 0.0000000000000000e+00  1.1516174732247551e-02 1.3436914540472612e-02 0.0000000000000000e+00  -1.5169777010343017e-03 7.6783840166188147e-03 0.0000000000000000e+00  8.5907101074766761e-04 -2.1902749166299411e-02 0.0000000000000000e+00  -2.1864120301859993e-02 -7.6815868261787175e-04 0.0000000000000000e+00  -1.1998227230536088e-05 2.2040739788181007e-02 0.0000000000000000e+00  7.8686324268621745e-06 -2.2082696617203836e-02 0.0000000000000000e+00  0.0000000000000000e+00 0.0000000000000000e+00 0.0000000000000000e+00  0.0000000000000000e+00 0.0000000000000000e+00 0.0000000000000000e+00  1.0111208206674519e-03 -1.8867262174518448e-02 0.0000000000000000e+00  -1.8973188996248950e-02 -5.9875821776817872e-04 0.0000000000000000e+00  -7.1661465380182914e-03 -1.8357512152614957e-03 0.0000000000000000e+00  1.1912274329116689e-02 -1.5307190982291890e-02 0.0000000000000000e+00  -1.8898417706749309e-02 -9.3773689017331036e-03 0.0000000000000000e+00  1.8944041703433223e-02 5.6251869502614094e-04 0.0000000000000000e+00  1.1647901172428892e-04 1.8698144924959369e-02 0.0000000000000000e+00  1.8851296137127108e-03 -7.0990935420609793e-03 0.0000000000000000e+00  0.0000000000000000e+00 0.0000000000000000e+00 0.0000000000000000e+00  1.9519135097567208e-02 -3.2292874598352733e-04 0.0000000000000000e+00  -2.4106900589670015e-03 -2.2096222024872353e-02 0.0000000000000000e+00  0.0000000000000000e+00 0.0000000000000000e+00 0.0000000000000000e+00  7.9863583780457004e-05 -1.9373572409899585e-02 0.0000000000000000e+00  0.0000000000000000e+00 0.0000000000000000e+00 0.0000000000000000e+00  1.0292745800609400e-04 1.9805181571573342e-02 0.0000000000000000e+00  -1.9875782735969624e-02 -1.6052973179294782e-04 0.0000000000000000e+00  0.0000000000000000e+00 0.0000000000000000e+00 0.0000000000000000e+00  0.0000000000000000e+00 0.0000000000000000e+00 0.0000000000000000e+00  0.0000000000000000e+00 0.0000000000000000e+00 0.0000000000000000e+00  1.2759581703083301e-05 -2.2292793438569748e-02 0.0000000000000000e+00  -4.0152152894413443e-05 2.2247000355102260e-02 0.0000000000000000e+00  2.2327294075747049e-02 5.2166788787007802e-06 0.0000000000000000e+00  2.1968519171016974e-02 -3.4675716667124468e-04 0.0000000000000000e+00  -2.2236408159925596e-02 -2.1238995826064563e-05 0.0000000000000000e+00  1.6687437796083126e-05 -2.2254452511130580e-02 0.0000000000000000e+00  2.4369701027010706e-05 2.2189160834077824e-02 0.0000000000000000e+00  -2.2341713773713773e-02 4.1973301251606664e-06 0.0000000000000000e+00  1.8919717696421527e-02 1.1272983912672653e-06 0.0000000000000000e+00  0.0000000000000000e+00 0.0000000000000000e+00 0.0000000000000000e+00  0.0000000000000000e+00 0.0000000000000000e+00 0.0000000000000000e+00  4.5609394389460497e-04 -1.9837846226752179e-02 0.0000000000000000e+00  -1.0214774764274429e-04 1.9810032514695691e-02 0.0000000000000000e+00  0.0000000000000000e+00 0.0000000000000000e+00 0.0000000000000000e+00  -2.1447430843570443e-02 2.9797274138600865e-04 0.0000000000000000e+00  0.0000000000000000e+00 0.0000000000000000e+00 0.0000000000000000e+00  0.0000000000000000e+00 0.0000000000000000e+00 0.0000000000000000e+00  2.1546378888195088e-02 5.8263187211549148e-05 0.0000000000000000e+00  -2.1393191974989935e-02 -2.6959720637640552e-05 0.0000000000000000e+00  0.0000000000000000e+00 0.0000000000000000e+00 0.0000000000000000e+00  0.0000000000000000e+00 0.0000000000000000e+00 0.0000000000000000e+00  -1.0373931232747907e-02 -1.6158146658097922e-02 0.0000000000000000e+00  -1.6739116482177209e-05 -2.2043741187960247e-02 0.0000000000000000e+00  -2.2111399158702333e-02 7.3018915590340820e-05 0.0000000000000000e+00  2.2222494732598696e-02 1.8010824295885368e-06 0.0000000000000000e+00  1.8273729183235700e-05 2.2326001989413140e-02 0.0000000000000000e+00  -1.9809319978927778e-02 -1.0104446294476833e-04 0.0000000000000000e+00  1.3342675847406062e-04 1.9552303963595835e-02 0.0000000000000000e+00  -1.1609611794714875e-05 1.9470969698178530e-02 0.0000000000000000e+00  6.3249125837004205e-05 -1.9460814077319033e-02 0.0000000000000000e+00  2.3452676169621625e-05 -2.2115831759859105e-02 0.0000000000000000e+00  0.0000000000000000e+00 0.0000000000000000e+00 0.0000000000000000e+00  4.0471379880309175e-06 -2.2060171477872200e-02 0.0000000000000000e+00  -1.1404140177827054e-02 2.3328176845837773e-03 0.0000000000000000e+00  -1.7241232895822751e-02 1.1595548849323132e-02 0.0000000000000000e+00  1.9956758251093196e-02 9.3338074930193783e-03 0.0000000000000000e+00  -1.6262178265823858e-03 -2.0949344948492002e-02 0.0000000000000000e+00  6.1697080947959110e-03 1.1635013343369179e-04 0.0000000000000000e+00  -2.0039475054712222e-02 -2.0798391701302418e-04 0.0000000000000000e+00  6.7759123200472649e-06 -2.0044414587641723e-02 0.0000000000000000e+00  -2.1939342562839331e-04 2.0026227192292464e-02 0.0000000000000000e+00  1.9812885664266124e-02 2.5620854334558537e-05 0.0000000000000000e+00  1.9779268390056368e-02 7.3372626323692882e-07 0.0000000000000000e+00  1.8357439201563365e-04 2.1976651949806674e-02 0.0000000000000000e+00  1.9828242348569669e-02 3.6633794953315848e-04 0.0000000000000000e+00  3.1033397466022388e-05 -2.2307683707385031e-02 0.0000000000000000e+00  2.0170482246864520e-05 2.2317577281182402e-02 0.0000000000000000e+00  2.2194752510157442e-02 2.7929775938455642e-05 0.0000000000000000e+00  -2.2303626252180436e-02 4.2551598984557165e-05 0.0000000000000000e+00  -1.9287619706071620e-02 1.5691244174036403e-04 0.0000000000000000e+00  -1.7738481523217072e-04 -2.1951965515648549e-02 0.0000000000000000e+00  -1.7225455744755767e-04 -1.9129445966340738e-02 0.0000000000000000e+00  -2.1932996020221709e-02 4.4441978495676803e-04 0.0000000000000000e+00  2.2335526892071259e-02 1.7635658927599888e-05 0.0000000000000000e+00  6.2266751870483299e-06 2.2261477858932417e-02 0.0000000000000000e+00  2.1946089717453817e-02 3.6634998849071623e-04 0.0000000000000000e+00  -2.5737139872958081e-03 1.3686917995394919e-02 0.0000000000000000e+00  0.0000000000000000e+00 0.0000000000000000e+00 0.0000000000000000e+00  0.0000000000000000e+00 0.0000000000000000e+00 0.0000000000000000e+00  0.0000000000000000e+00 0.0000000000000000e+00 0.0000000000000000e+00  -7.9968593850877687e-06 2.2336876750241066e-02 0.0000000000000000e+00  2.0754835346377944e-05 2.2224325221103618e-02 0.0000000000000000e+00  2.5200063307757727e-05 -2.2256894541568054e-02 0.0000000000000000e+00  -2.2136238938288727e-02 -9.4681534746295876e-06 0.0000000000000000e+00  0.0000000000000000e+00 0.0000000000000000e+00 0.0000000000000000e+00  -6.2628626962706897e-06 -2.2303004969004225e-02 0.0000000000000000e+00  0.0000000000000000e+00 0.0000000000000000e+00 0.0000000000000000e+00  -1.9252506899287983e-02 -2.5958267655976563e-05 0.0000000000000000e+00  -3.9780489981314761e-05 -2.2231560622890150e-02 0.0000000000000000e+00  -1.8047437293616535e-03 2.0451285461673342e-02 0.0000000000000000e+00  -3.0497941984950830e-03 2.1732487422361120e-02 0.0000000000000000e+00  -2.2309182051180883e-02 3.4599564131169783e-06 0