<?xml version="1.0"?>
<VTKFile type="UnstructuredGrid"  version="0.1"  >
<UnstructuredGrid>
<Piece  NumberOfPoints="778" NumberOfCells="1401">
<Points>
<DataArray  type="Float64"  NumberOfComponents="3"  format="ascii">1 -1 0  6 -1 0  6 1 0  1 1 0  1 6 0  -1 6 0  -1 1 0  -6 1 0  -6 -1 0  -1 -1 0  -1 -6 0  1 -6 0  1 3.5 0  -1 3.5 0  -1 -3.5 0  1 -3.5 0  3.5 -1 0  3.5 1 0  -3.5 -1 0  -3.5 1 0  -1 -2.25 0  1 -2.25 0  2.25 -1 0  2.25 1 0  -1 2.25 0  1 2.25 0  -1 4.75 0  1 4.75 0  -4.75 -1 0  -4.75 1 0  -2.25 1 0  -2.25 -1 0  1 -4.75 0  -1 -4.75 0  4.75 1 0  4.75 -1 0  0 0 0  -2.875 0 0  -1.625 0 0  -4.125 0 0  -6 0 0  0 2.875 0  2.875 0 0  0 6 0  1.625 0 0  0 -2.875 0  0 -1.625 0  0 1.625 0  0 4.125 0  0 -6 0  0 -4.125 0  4.125 0 0  6 0 0  -0.109375 5.0625 0  -5.0625 -0.109375 0  -0.109375 -5.0625 0  5.0625 0.109375 0  0.8125 -0.1875 0  -0.1875 -0.8125 0  -0.8125 0.1875 0  -0.1875 0.8125 0  1 5.375 0  -5.375 1 0  1 -5.375 0  5.375 -1 0  0.53515625 0.46484375 0  -5.375 -1 0  -1 5.375 0  -1 -5.375 0  -0.5 -6 0  5.375 1 0  6 0.5 0  3.5 0.3046875 0  3.43125 -0.34765625 0  2.875 -1 0  4.125 1 0  0.3046875 3.5 0  -0.34765625 3.56875 0  -1 4.125 0  1 4.125 0  -0.3046875 2.25 0  0.34765625 2.18125 0  1 1.625 0  -1 -1.625 0  -0.3046875 -3.5 0  0.34765625 -3.56875 0  1 -4.125 0  0.3046875 -2.25 0  -0.34765625 -2.18125 0  -1 -4.125 0  -1 -2.875 0  1 -2.875 0  1 -1.625 0  1.625 -1 0  1.625 1 0  2.25 0.3046875 0  2.18125 -0.34765625 0  4.125 -1 0  2.875 1 0  1 2.875 0  -1 1.625 0  -1 2.875 0  -4.125 -1 0  -2.25 0.3046875 0  -2.31875 -0.34765625 0  -2.875 -1 0  -1.625 1 0  -4.125 1 0  -3.5 0.3046875 0  -3.56875 -0.34765625 0  -1.625 -1 0  -2.875 1 0  0.380626321794301 1.06853329530276 0  -1.110819327731092 -0.3739495798319328 0  0.3739495798319328 -1.110819327731092 0  1.151210293219304 0.3991939332620648 0  -0.5 -4.4375 0  0.5 -4.4375 0  5.481553398058253 -0.3712833737864077 0  0.5 4.4375 0  0.5 6 0  -0.522503783594538 -0.3265648647465863 0  -1.3125 0.5 0  -0.5 6 0  0.3265648647465863 -0.522503783594538 0  4.4375 0.5 0  4.4375 -0.5 0  0.5 -6 0  -6 -0.5 0  -5.481553398058253 0.3712833737864077 0  -4.55 -0.4296875 0  -4.4375 0.5 0  -0.5 4.4375 0  0.4792930825242718 5.026881067961165 0  0.4792930825242718 -5.026881067961165 0  -0.5 1.3125 0  1.3125 -0.5 0  -0.5 -1.3125 0  0.25 5.518539952962044 0  0.2125133872612723 -5.500076563152851 0  4.969341874373811 -0.5152550785163683 0  -4.969341874373811 0.5152550785163683 0  3.927189744345589 -0.4712876597840069 0  -5.554036458333333 -0.25 0  5.554036458333333 0.25 0  -0.4690710616438356 -5.462756849315069 0  -0.4690710616438356 5.462756849315069 0  -6 0.5 0  -1.59556436210848 -0.5 0  -3.058421751829955 -0.5 0  -0.5 2.731982421875 0  0.5 2.691578248170045 0  2.691578248170045 -0.5 0  1.641211254104555 0.5 0  0.5 -1.768017578125 0  0.5 -3.058421751829955 0  0.5 1.699267578125 0  3.018017578125 0.5 0  -0.5 -3.018017578125 0  -2.731982421875 0.5 0  6 -0.5 0  -4.050017120925308 -0.5006099332648871 0  -3.940668202764977 0.5371363767281105 0  3.940668202764977 0.5371363767281105 0  0.4517449476047904 3.958458083832335 0  -0.4517449476047904 -3.958458083832335 0  -1.809331797235023 0.5371363767281105 0  -0.4517449476047904 1.791541916167665 0  -0.0546875 4.59375 0  -5.006445312499999 -0.58984375 0  4.605643203883496 -0.04725424757281554 0  4.90625 0.5546875 0  -0.5546875 4.90625 0  0.04725424757281554 -4.605643203883496 0  -0.586116118210531 -4.995821561900013 0  -4.603710222472543 0.04846236095466061 0  -3.1875 0.65234375 0  0.6163907621110913 3.147502300973589 0  2.5625 0.65234375 0  0.6163907621110913 -2.602497699026411 0  -0.637456713551384 3.189259902731882 0  -0.637456713551384 -2.560740097268118 0  -0.34765625 0.34765625 0  -0.639453125 0.708203125 0  0.089630126953125 0.437286376953125 0  -0.4238281249999999 -1.746875 0  1.746875 -0.4238281249999999 0  -0.4238281249999999 4.003125 0  0.4238281249999999 -4.003125 0  -2.5625 -1 0  3.1875 -1 0  -0.09375 -1.21875 0  1.21875 -0.09375 0  0.4020305405760241 -0.1120343241705621 0  -0.6280191027904287 -0.7577505545748082 0  0.90625 -0.59375 0  -1.205500904741459 0.03633725387965409 0  -0.02129048848213058 1.202028574265107 0  -0.1120343241705621 -0.4020305405760241 0  1 1.3125 0  -2.003587563743074 -0.6442361556699288 0  0.6640077663259718 -1.395873598614549 0  5.6875 -1 0  0.6308138580859101 -5.592151086468728 0  -5.6875 -1 0  0.6568032075915271 5.612942566073222 0  5.616530031741774 0.6612875396772174 0  -5.6875 1 0  1.9375 1 0  -1.3125 -1 0  0.1524679547155687 -3.232579139388032 0  0.1524679547155687 2.517420860611968 0  -3.232579139388032 -0.1524679547155687 0  -1.932320553757026 -0.252759244693845 0  2.517420860611968 -0.1524679547155687 0  -0.04776045819569434 -2.464949198504599 0  -0.2420369079104247 3.187693796852321 0  3.751304711039982 -0.1203080877045035 0  -5.397601941771943 -0.609026059866711 0  1.3125 1 0  1.9375 -1 0  -0.6946315101963667 -2.018229242739021 0  -0.6946315101963667 3.731770757260979 0  1 -3.8125 0  2.014364435550335 0.6166648446293641 0  -1 5.6875 0  -1 -5.6875 0  -2.653476149871182 -0.5942957192996303 0  3.096523850128818 -0.5942957192996303 0  1 1.9375 0  -3.8125 -1 0  0.586975531244212 -0.7975955463807081 0  -0.2946248980953088 -4.743710873809568 0  2.625453376770019 0.2814788818359375 0  -3.124546623229981 0.2814788818359375 0  -0.1204856417894853 5.631800603217465 0  5.253862011026742 0.6581468962876398 0  -0.65234375 2.108701557941197 0  0.65234375 3.641298442058803 0  -0.65234375 -3.641298442058803 0  -0.25 -5.744880569758637 0  -4.4375 -1 0  -0.3166212631734941 -2.713595940002554 0  0.6591479224207506 0.1324305912687024 0  0.8660781906552419 0.6468634238104103 0  -0.9887189158197679 0.6452930723873549 0  0.3149351927204296 -1.460971774996065 0  -0.3572852727880474 -0.009629022788047503 0  2.09375 -0.6866724363772454 0  0.6866724363772454 -3.65625 0  0.6866724363772454 2.09375 0  -3.65625 -0.6866724363772454 0  -3.5371337890625 0.65234375 0  -0.1389584113023952 1.944025352615082 0  -2.151744288472698 0.65234375 0  -0.1389584113023951 -3.805974647384918 0  0.1389584113023951 3.805974647384918 0  -2.578772109813904 0.1857224367977529 0  3.171227890186096 0.1857224367977529 0  3.360315647536819 0.65234375 0  0.1857224367977528 -1.921227890186096 0  0.65234375 -2.110315647536819 0  1.894016528727564 0.2415406141485869 0  -3.738232421875 0 0  0.2516875549238616 3.139069895099618 0  -1.913724396854074 0.2011142179916434 0  0.1669456568161915 0.7843410671359501 0  -2.5625 1 0  -1 -3.1875 0  -1 2.5625 0  0.1736601499778735 4.857955663330752 0  -0.1893536587212888 2.577300639071919 0  -0.1893536587212888 -3.172699360928081 0  3.852271904453858 0.206603749322895 0  -3.8125 1 0  -0.1250095034621793 -5.421707592768541 0  3.8125 -1 0  3.617304217264373 -0.6578427703661498 0  0.2630176195580202 -2.636558318495885 0  0.2674330357770522 1.399517071108871 0  0.631726413079416 1.339254523727593 0  4.700571879807737 0.2813704945051134 0  0.7143844363649634 -3.319538455208831 0  2.430461544791169 -0.7143844363649634 0  0.7143844363649634 2.430461544791169 0  -3.319538455208831 -0.7143844363649634 0  5.687045771608623 -0.6520598572553891 0  -5.687045771608623 0.6520598572553891 0  -1.15625 -0.7048248829733235 0  3.438284572973296 -0.01860298867862281 0  -0.03021088078697859 3.451572359862192 0  2.216682837011589 -0.02159585961918548 0  -2.191580885932936 -0.03126387444658879 0  0.1857410764408683 1.895679405349457 0  3.103473238297955 -0.253270943723272 0  -2.646526761702045 -0.253270943723272 0  -2.333137350671861 -0.6791984914172315 0  -1 5.0625 0  -0.6971235589909319 5.213002544375844 0  0.01618705363819947 2.225929180591695 0  0.01618705363819947 -3.524070819408305 0  0.5690054882403073 0.7951310720450595 0  -0.5764940424412852 -3.329579265180942 0  -0.5764940424412852 2.420420734819058 0  3.8125 1 0  -5.372163860234628 0.04365139563106807 0  5.164108319316826 -0.225040894204947 0  -5.361952437854323 0.6744012088984681 0  -5.0625 1 0  5.286835586913878 -0.6616705837083201 0  -5.692815197359722 0.1186699900166531 0  5.663425996156958 -0.07763197815533956 0  -0.9219866027132193 -0.1143045829323572 0  -1.394333629759332 -0.2233077430199216 0  0.09322478991596644 -0.9616596638655462 0  5.0625 -1 0  -0.14412109375 -1.92169189453125 0  -4.28125 -0.7212148987671345 0  0.2649796277366407 0.1735162902120744 0  -4.907855692236596 0.1868230509619793 0  -1.9375 1 0  1 5.0625 0  0.6915124486819284 -5.272938212550202 0  0.683483242673902 5.284948082526911 0  2.5625 -1 0  -1 -3.8125 0  -1 1.9375 0  5.0625 1 0  -1 -1.9375 0  1 5.6875 0  1 -5.6875 0  -1.9375 -1 0  -1 -2.5625 0  -1 3.1875 0  1 -3.1875 0  1 -2.5625 0  1 2.5625 0  1 3.1875 0  -5.0625 -1 0  -1 -1.3125 0  1.3125 -1 0  -1 1.3125 0  -1 3.8125 0  -1 4.4375 0  -4.4375 1 0  4.4375 -1 0  4.4375 1 0  -1.3125 1 0  1 4.4375 0  1 -4.4375 0  -1 -5.0625 0  -1 -4.4375 0  -3.1875 1 0  2.5625 1 0  1 -1.9375 0  1 -1.3125 0  5.6875 1 0  1 3.8125 0  3.1875 1 0  -3.1875 -1 0  1 -5.0625 0  1.35138038998199 0.6675097549271188 0  -0.465625 0.986328125 0  1.435958105992309 0.2563920171199723 0  1.915914614192913 -0.145782394639918 0  -0.8764440609469509 -0.5746869313612541 0  5.355194559946098 0.01566259380337612 0  -5.69333042954964 -0.5242868300459975 0  1.78125 -0.7320750794491524 0  0.7320750794491525 -3.96875 0  -0.3959075548864684 5.166422468926435 0  -4.770522389068053 -0.2123670725088856 0  -4.714160156249999 -0.69234375 0  -4.273484403713342 -0.278160994327167 0  0.9642590244517505 0.08196089404241463 0  0.3500261717645397 -4.727285205957206 0  0.6740868006020392 -4.765147848348443 0  0.6797550207247084 -1.089747806381148 0  -5.186479934354063 0.3046329157552757 0  -5.263288238215326 -0.3369092276308425 0  -2.433484016245305 0.5442571297016638 0  0.1707808983307866 -3.82363304980935 0  -0.1554012991031027 3.867535742674252 0  4.855508096805579 -0.2283975605264581 0  3.644517238097614 0.5646428152488787 0  0.05699603874439441 -0.6452791208413911 0  -0.3550018917972689 -0.5695324323732931 0  0.6
[...]
<PointData  Vectors="u"> 
<DataArray  type="Float64"  Name="u"  NumberOfComponents="3" format="ascii">0.0000000000000000e+00 0.0000000000000000e+00 0.0000000000000000e+00  0.0000000000000000e+00 0.0000000000000000e+00 0.0000000000000000e+00  0.0000000000000000e+00 0.0000000000000000e+00 0.0000000000000000e+00  0.0000000000000000e+00 0.0000000000000000e+00 0.0000000000000000e+00  0.0000000000000000e+00 0.0000000000000000e+00 0.0000000000000000e+00  0.0000000000000000e+00 0.0000000000000000e+00 0.0000000000000000e+00  0.0000000000000000e+00 0.0000000000000000e+00 0.0000000000000000e+00  0.0000000000000000e+00 0.0000000000000000e+00 0.0000000000000000e+00  0.0000000000000000e+00 0.0000000000000000e+00 0.0000000000000000e+00  0.0000000000000000e+00 0.0000000000000000e+00 0.0000000000000000e+00  0.0000000000000000e+00 0.0000000000000000e+00 0.0000000000000000e+00  0.0000000000000000e+00 0.0000000000000000e+00 0.0000000000000000e+00  0.0000000000000000e+00 0.0000000000000000e+00 0.0000000000000000e+00  0.0000000000000000e+00 0.0000000000000000e+00 0.0000000000000000e+00  0.0000000000000000e+00 0.0000000000000000e+00 0.0000000000000000e+00  0.0000000000000000e+00 0.0000000000000000e+00 0.0000000000000000e+00  0.0000000000000000e+00 0.0000000000000000e+00 0.0000000000000000e+00  0.0000000000000000e+00 0.0000000000000000e+00 0.0000000000000000e+00  0.0000000000000000e+00 0.0000000000000000e+00 0.0000000000000000e+00  0.0000000000000000e+00 0.0000000000000000e+00 0.0000000000000000e+00  0.0000000000000000e+00 0.0000000000000000e+00 0.0000000000000000e+00  0.0000000000000000e+00 0.0000000000000000e+00 0.0000000000000000e+00  0.0000000000000000e+00 0.0000000000000000e+00 0.0000000000000000e+00  0.0000000000000000e+00 0.0000000000000000e+00 0.0000000000000000e+00  0.0000000000000000e+00 0.0000000000000000e+00 0.0000000000000000e+00  0.0000000000000000e+00 0.0000000000000000e+00 0.0000000000000000e+00  0.0000000000000000e+00 0.0000000000000000e+00 0.0000000000000000e+00  0.0000000000000000e+00 0.0000000000000000e+00 0.0000000000000000e+00  0.0000000000000000e+00 0.0000000000000000e+00 0.0000000000000000e+00  0.0000000000000000e+00 0.0000000000000000e+00 0.0000000000000000e+00  0.0000000000000000e+00 0.0000000000000000e+00 0.0000000000000000e+00  0.0000000000000000e+00 0.0000000000000000e+00 0.0000000000000000e+00  0.0000000000000000e+00 0.0000000000000000e+00 0.0000000000000000e+00  0.0000000000000000e+00 0.0000000000000000e+00 0.0000000000000000e+00  0.0000000000000000e+00 0.0000000000000000e+00 0.0000000000000000e+00  0.0000000000000000e+00 0.0000000000000000e+00 0.0000000000000000e+00  -2.0128367072324126e-04 1.0249714773873049e-04 0.0000000000000000e+00  5.4310565548143029e-02 -1.1380615616339270e-05 0.0000000000000000e+00  5.1904061377313744e-02 6.0798807999424722e-05 0.0000000000000000e+00  5.4375601949700848e-02 4.0933870509513102e-06 0.0000000000000000e+00  5.4435482393580537e-02 3.7165329679142859e-05 0.0000000000000000e+00  1.3086449129553557e-05 5.4301048121777079e-02 0.0000000000000000e+00  -5.4221341694976569e-02 4.4829484621857388e-05 0.0000000000000000e+00  4.0147409925733881e-05 5.4231341196394604e-02 0.0000000000000000e+00  -5.2004949189242311e-02 1.2029455860032634e-04 0.0000000000000000e+00  6.6095970464252621e-06 -5.4263850811731185e-02 0.0000000000000000e+00  -1.0596646011535488e-05 -5.1841229127981017e-02 0.0000000000000000e+00  4.2713743086972809e-05 5.1778660624766944e-02 0.0000000000000000e+00  3.6313891673943960e-05 5.4256789465951936e-02 0.0000000000000000e+00  4.2252440535550796e-05 -5.4247923497091260e-02 0.0000000000000000e+00  6.9651327376222039e-05 -5.4323368609622141e-02 0.0000000000000000e+00  -5.4384673637160805e-02 -2.0206348600362030e-05 0.0000000000000000e+00  -5.4355404484449137e-02 -4.8643197780356235e-05 0.0000000000000000e+00  -6.7392574732255055e-05 5.4384781916278227e-02 0.0000000000000000e+00  5.4328724253063433e-02 -7.2798677423079576e-05 0.0000000000000000e+00  -8.3524806982728086e-05 -5.4141054215418136e-02 0.0000000000000000e+00  -5.4255435682570130e-02 -6.6391466077824970e-05 0.0000000000000000e+00  -3.5220914554196375e-02 -7.2768957519390633e-03 0.0000000000000000e+00  7.0795438883908138e-03 -3.4747658653435202e-02 0.0000000000000000e+00  3.4636675770364500e-02 7.1808514701094343e-03 0.0000000000000000e+00  7.2905901328823098e-03 3.4804047796506053e-02 0.0000000000000000e+00  0.0000000000000000e+00 0.0000000000000000e+00 0.0000000000000000e+00  0.0000000000000000e+00 0.0000000000000000e+00 0.0000000000000000e+00  0.0000000000000000e+00 0.0000000000000000e+00 0.0000000000000000e+00  0.0000000000000000e+00 0.0000000000000000e+00 0.0000000000000000e+00  -2.4277896266037789e-02 2.0499639506014675e-02 0.0000000000000000e+00  0.0000000000000000e+00 0.0000000000000000e+00 0.0000000000000000e+00  0.0000000000000000e+00 0.0000000000000000e+00 0.0000000000000000e+00  0.0000000000000000e+00 0.0000000000000000e+00 0.0000000000000000e+00  5.8129572632065502e-05 -5.1791755975458265e-02 0.0000000000000000e+00  0.0000000000000000e+00 0.0000000000000000e+00 0.0000000000000000e+00  -5.4102276825160639e-02 -1.3157027510228456e-06 0.0000000000000000e+00  -5.4458501293828974e-02 6.1332149200950953e-05 0.0000000000000000e+00  -5.4335013338183462e-02 2.1392417948907353e-05 0.0000000000000000e+00  0.0000000000000000e+00 0.0000000000000000e+00 0.0000000000000000e+00  0.0000000000000000e+00 0.0000000000000000e+00 0.0000000000000000e+00  3.2414828090420533e-05 5.4267783250176387e-02 0.0000000000000000e+00  -2.6469885814765291e-06 5.4380006359166198e-02 0.0000000000000000e+00  0.0000000000000000e+00 0.0000000000000000e+00 0.0000000000000000e+00  0.0000000000000000e+00 0.0000000000000000e+00 0.0000000000000000e+00  2.5754464668505242e-04 5.4049777130392385e-02 0.0000000000000000e+00  -3.8133308655417808e-04 5.4110946185494085e-02 0.0000000000000000e+00  0.0000000000000000e+00 0.0000000000000000e+00 0.0000000000000000e+00  0.0000000000000000e+00 0.0000000000000000e+00 0.0000000000000000e+00  4.1133450360290206e-05 -5.4265078480692855e-02 0.0000000000000000e+00  1.7104747144691785e-05 -5.4307002263797262e-02 0.0000000000000000e+00  0.0000000000000000e+00 0.0000000000000000e+00 0.0000000000000000e+00  -2.2993211673490331e-04 -5.4069029825726776e-02 0.0000000000000000e+00  4.7189750150409014e-04 -5.4166348469018952e-02 0.0000000000000000e+00  0.0000000000000000e+00 0.0000000000000000e+00 0.0000000000000000e+00  0.0000000000000000e+00 0.0000000000000000e+00 0.0000000000000000e+00  0.0000000000000000e+00 0.0000000000000000e+00 0.0000000000000000e+00  0.0000000000000000e+00 0.0000000000000000e+00 0.0000000000000000e+00  0.0000000000000000e+00 0.0000000000000000e+00 0.0000000000000000e+00  0.0000000000000000e+00 0.0000000000000000e+00 0.0000000000000000e+00  -5.4047947178898728e-02 3.4114921322117391e-04 0.0000000000000000e+00  -5.4065610051041761e-02 -3.4740828747775683e-04 0.0000000000000000e+00  0.0000000000000000e+00 0.0000000000000000e+00 0.0000000000000000e+00  0.0000000000000000e+00 0.0000000000000000e+00 0.0000000000000000e+00  0.0000000000000000e+00 0.0000000000000000e+00 0.0000000000000000e+00  0.0000000000000000e+00 0.0000000000000000e+00 0.0000000000000000e+00  0.0000000000000000e+00 0.0000000000000000e+00 0.0000000000000000e+00  0.0000000000000000e+00 0.0000000000000000e+00 0.0000000000000000e+00  5.4194443022829511e-02 3.5459075173750472e-04 0.0000000000000000e+00  5.4277114077644073e-02 -3.2468801568023999e-04 0.0000000000000000e+00  0.0000000000000000e+00 0.0000000000000000e+00 0.0000000000000000e+00  0.0000000000000000e+00 0.0000000000000000e+00 0.0000000000000000e+00  0.0000000000000000e+00 0.0000000000000000e+00 0.0000000000000000e+00  5.4164100757101000e-02 9.2357162849994730e-05 0.0000000000000000e+00  5.4346693179897543e-02 2.4679877668063499e-05 0.0000000000000000e+00  0.0000000000000000e+00 0.0000000000000000e+00 0.0000000000000000e+00  0.0000000000000000e+00 0.0000000000000000e+00 0.0000000000000000e+00  -1.0088405374518182e-02 4.5926197429001642e-02 0.0000000000000000e+00  4.7227835728521170e-02 -9.8506539542467502e-03 0.0000000000000000e+00  -9.3987807225289922e-03 -4.7674639731870201e-02 0.0000000000000000e+00  -4.8262206180081625e-02 8.8701242990019535e-03 0.0000000000000000e+00  3.8507157490067078e-05 -5.1727234163192339e-02 0.0000000000000000e+00  -7.0527118515318932e-07 -5.4347253005856550e-02 0.0000000000000000e+00  -5.4391724941682124e-02 -7.5828486779665980e-05 0.0000000000000000e+00  3.9282568201896801e-06 5.4245588386973118e-02 0.0000000000000000e+00  4.3814443263767608e-05 5.4230730724000274e-02 0.0000000000000000e+00  2.3012417658629446e-02 -1.4367707844988904e-02 0.0000000000000000e+00  5.2489141224827736e-02 7.3362431114547813e-03 0.0000000000000000e+00  2.0691023987364716e-05 5.1785772782331221e-02 0.0000000000000000e+00  -1.3852607048846470e-02 -2.2989180649832686e-02 0.0000000000000000e+00  -5.4239485505336783e-02 -4.2265929435780871e-05 0.0000000000000000e+00  -5.4375579685624904e-02 6.6249808093642151e-06 0.0000000000000000e+00  2.6696343070343232e-05 -5.4230437003249407e-02 0.0000000000000000e+00  5.4458183218329910e-02 -1.5949212329539657e-06 0.0000000000000000e+00  5.4296151303324026e-02 5.4979300424825991e-05 0.0000000000000000e+00  5.4456326683208885e-02 6.5649511843788082e-06 0.0000000000000000e+00  5.1546942645838756e-02 -1.5247948018077982e-05 0.0000000000000000e+00  1.6877715900174246e-05 5.4096649579142383e-02 0.0000000000000000e+00  -3.4297629059479942e-05 5.4383373098726540e-02 0.0000000000000000e+00  -3.1498458155549681e-05 -5.4316554517199744e-02 0.0000000000000000e+00  7.8233512560067810e-03 5.3867023128708523e-02 0.0000000000000000e+00  -5.3026132590898355e-02 -7.3066321556430822e-03 0.0000000000000000e+00  7.3571086681598974e-03 -5.2559518266839168e-02 0.0000000000000000e+00  3.4333018475501861e-05 5.4264198637966554e-02 0.0000000000000000e+00  -2.5767691238185922e-05 -5.4350569555088157e-02 0.0000000000000000e+00  -5.4428111796120095e-02 -5.9869588591237400e-05 0.0000000000000000e+00  5.2134995791546672e-02 9.7458873574088644e-07 0.0000000000000000e+00  -5.4294827644076386e-02 -2.9714666820782789e-05 0.0000000000000000e+00  5.4370089657682953e-02 -7.7212540288332891e-05 0.0000000000000000e+00  -5.4314380763658722e-02 -1.4293678600256303e-04 0.0000000000000000e+00  4.6879446014269045e-06 -5.4174148059646245e-02 0.0000000000000000e+00  1.7892451265416122e-05 5.4227662137911636e-02 0.0000000000000000e+00  5.2684446637539781e-02 1.1872107805142176e-04 0.0000000000000000e+00  5.4075329367722330e-02 -2.8212695433181981e-03 0.0000000000000000e+00  5.4371286802660658e-02 1.6350197000735418e-05 0.0000000000000000e+00  -6.8015856321449000e-06 5.4308835419625376e-02 0.0000000000000000e+00  -9.3662150573931862e-05 5.4199084144729744e-02 0.0000000000000000e+00  -5.4296219450324090e-02 -2.8484437064494982e-05 0.0000000000000000e+00  -5.4170418479541946e-02 2.7761213727844629e-03 0.0000000000000000e+00  -1.6366266321094091e-03 -5.3956491038598703e-02 0.0000000000000000e+00  -1.4297991763944393e-05 -5.4263249358140170e-02 0.0000000000000000e+00  -1.9045806124063981e-03 5.4306963553865072e-02 0.0000000000000000e+00  -5.4171991513201456e-02 9.8215021617487200e-05 0.0000000000000000e+00  1.0679334361258543e-04 -5.4223305231024102e-02 0.0000000000000000e+00  5.4342850751118825e-02 1.5342015168150651e-06 0.0000000000000000e+00  -5.2555300769159013e-02 -5.5228843700215622e-05 0.0000000000000000e+00  5.4348648165191672e-02 -4.2611910670416925e-06 0.0000000000000000e+00  5.2240324910089730e-02 -1.8565125059145267e-04 0.0000000000000000e+00  -5.2223937478151475e-02 -3.9593495962227999e-04 0.0000000000000000e+00  2.7807621141325938e-05 5.4272319705062966e-02 0.0000000000000000e+00  8.3712271295020195e-05 -5.4283112988996733e-02 0.0000000000000000e+00  5.1956799452523066e-02 1.4591431405080440e-03 0.0000000000000000e+00  1.5424511391944030e-03 5.3668877478082001e-02 0.0000000000000000e+00  5.7843164532529441e-05 5.4295916104278599e-02 0.0000000000000000e+00  5.2724386792955262e-02 9.1062770766636445e-05 0.0000000000000000e+00  -5.4365679197302945e-02 -7.0981434501706794e-06 0.0000000000000000e+00  -4.9260624396610692e-02 8.1578260962523005e-05 0.0000000000000000e+00  6.8982355040411592e-05 4.8229735241847607e-02 0.0000000000000000e+00  -1.3080838979569672e-05 -5.4389161450634896e-02 0.0000000000000000e+00  -2.1303947594262122e-04 -4.8865618073038124e-02 0.0000000000000000e+00  5.4396568744442007e-02 -3.9611842889177004e-05 0.0000000000000000e+00  4.8939602983261499e-02 1.2161235130568514e-04 0.0000000000000000e+00  3.6906089950958861e-05 4.9742177526467028e-02 0.0000000000000000e+00  -5.3515042442313608e-02 2.8981310037480296e-04 0.0000000000000000e+00  -1.9073368480632520e-04 -4.9660914587576890e-02 0.0000000000000000e+00  2.3705452281209231e-04 5.0239982802995943e-02 0.0000000000000000e+00  -9.5446766073452050e-05 -5.0393178972610982e-02 0.0000000000000000e+00  1.5171756963587002e-02 1.4956815872154965e-02 0.0000000000000000e+00  2.8995473815278571e-02 3.3384859913486567e-02 0.0000000000000000e+00  -3.9084351774075878e-03 1.9021632994617892e-02 0.0000000000000000e+00  1.8621557626085424e-03 -5.3705476194186953e-02 0.0000000000000000e+00  -5.3540850299157616e-02 -1.6951293770266101e-03 0.0000000000000000e+00  -2.3592183197126398e-05 5.4190430370376304e-02 0.0000000000000000e+00  -3.1371443359549589e-06 -5.4286434926130209e-02 0.0000000000000000e+00  0.0000000000000000e+00 0.0000000000000000e+00 0.0000000000000000e+00  0.0000000000000000e+00 0.0000000000000000e+00 0.0000000000000000e+00  2.3831907690916700e-03 -4.6597501202048031e-02 0.0000000000000000e+00  -4.6563921470329596e-02 -1.6456071255384053e-03 0.0000000000000000e+00  -1.7709235119277938e-02 -4.6389636410228722e-03 0.0000000000000000e+00  2.8836546582636534e-02 -3.7777545626164095e-02 0.0000000000000000e+00  -4.7025724623085692e-02 -2.2174686837702014e-02 0.0000000000000000e+00  4.6361966186274806e-02 1.1501401142567692e-03 0.0000000000000000e+00  4.5542338759729784e-04 4.5977113264928614e-02 0.0000000000000000e+00  4.7613576729976081e-03 -1.7536548357652254e-02 0.0000000000000000e+00  0.0000000000000000e+00 0.0000000000000000e+00 0.0000000000000000e+00  5.0516490101627252e-02 -7.7757609123867339e-04 0.0000000000000000e+00  -4.3431177621173211e-03 -5.4275457116241592e-02 0.0000000000000000e+00  0.0000000000000000e+00 0.0000000000000000e+00 0.0000000000000000e+00  2.1229689054397813e-04 -5.0463341985488470e-02 0.0000000000000000e+00  0.0000000000000000e+00 0.0000000000000000e+00 0.0000000000000000e+00  2.9016962225590127e-04 5.1084140297325206e-02 0.0000000000000000e+00  -5.1239644940325575e-02 -4.4066993732507132e-04 0.0000000000000000e+00  0.0000000000000000e+00 0.0000000000000000e+00 0.0000000000000000e+00  0.0000000000000000e+00 0.0000000000000000e+00 0.0000000000000000e+00  0.0000000000000000e+00 0.0000000000000000e+00 0.0000000000000000e+00  3.5209899355681847e-05 -5.4282606350809247e-02 0.0000000000000000e+00  -7.7132651101085529e-05 5.4197410121608842e-02 0.0000000000000000e+00  5.4329041554223800e-02 1.4887458226406795e-05 0.0000000000000000e+00  5.3705115455749311e-02 -7.5331420886194764e-04 0.0000000000000000e+00  -5.4145812477516798e-02 -4.1286108507433111e-05 0.0000000000000000e+00  3.6230653573680890e-05 -5.4214877532273609e-02 0.0000000000000000e+00  7.6688226140056505e-05 5.4336995649124753e-02 0.0000000000000000e+00  -5.4405392690566476e-02 8.4215100116303363e-06 0.0000000000000000e+00  4.9727718761227981e-02 3.6741516550569185e-06 0.0000000000000000e+00  0.0000000000000000e+00 0.0000000000000000e+00 0.0000000000000000e+00  0.0000000000000000e+00 0.0000000000000000e+00 0.0000000000000000e+00  9.8376769185581740e-04 -5.1473591065623853e-02 0.0000000000000000e+00  -2.8344461896766623e-04 5.1625517041712116e-02 0.0000000000000000e+00  0.0000000000000000e+00 0.0000000000000000e+00 0.0000000000000000e+00  -5.3030971196194418e-02 6.0624703140641618e-04 0.0000000000000000e+00  0.0000000000000000e+00 0.0000000000000000e+00 0.0000000000000000e+00  0.0000000000000000e+00 0.0000000000000000e+00 0.0000000000000000e+00  5.2904459219603094e-02 1.9884931886099809e-04 0.0000000000000000e+00  -5.2527638577497954e-02 -5.2624708816303622e-05 0.0000000000000000e+00  0.0000000000000000e+00 0.0000000000000000e+00 0.0000000000000000e+00  0.0000000000000000e+00 0.0000000000000000e+00 0.0000000000000000e+00  -2.5438381316500693e-02 -4.0048576712130954e-02 0.0000000000000000e+00  -8.5237113042568779e-05 -5.4373228565153378e-02 0.0000000000000000e+00  -5.4161063288802207e-02 1.1732486550314996e-04 0.0000000000000000e+00  5.4291542626310210e-02 -1.2620986770527539e-05 0.0000000000000000e+00  4.8832229741096321e-05 5.4315854119930146e-02 0.0000000000000000e+00  -5.1639474403895276e-02 -2.2572429152057689e-04 0.0000000000000000e+00  2.7203881193668618e-04 5.1328379468527432e-02 0.0000000000000000e+00  -1.1840250782740028e-04 5.0472482685583721e-02 0.0000000000000000e+00  1.7298235130752741e-04 -5.0959803263260148e-02 0.0000000000000000e+00  6.4469797139177036e-05 -5.4230526996777613e-02 0.0000000000000000e+00  0.0000000000000000e+00 0.0000000000000000e+00 0.0000000000000000e+00  6.4415130248380966e-06 -5.4245279968763216e-02 0.0000000000000000e+00  -2.8471722031182575e-02 5.5633234232635798e-03 0.0000000000000000e+00  -4.2563710030368407e-02 2.8417831312981409e-02 0.0000000000000000e+00  4.9524556499673578e-02 2.2775099856948984e-02 0.0000000000000000e+00  -3.5661000229928485e-03 -5.1353235897543995e-02 0.0000000000000000e+00  1.5418691827361821e-02 -9.7605555920565995e-05 0.0000000000000000e+00  -5.1687908195190035e-02 -4.4303589998180294e-04 0.0000000000000000e+00  1.7796287060417422e-05 -5.1504471588247100e-02 0.0000000000000000e+00  -4.6533602594354495e-04 5.1658287230597719e-02 0.0000000000000000e+00  5.1237240102951331e-02 9.5901342458036296e-05 0.0000000000000000e+00  5.1769002471138463e-02 8.1865645281194854e-05 0.0000000000000000e+00  4.1612311867051614e-04 5.3607248535163549e-02 0.0000000000000000e+00  5.2256258975726680e-02 7.4854208016693206e-04 0.0000000000000000e+00  5.6743429449434776e-05 -5.4300498797877766e-02 0.0000000000000000e+00  4.2589665159156462e-05 5.4313530390766140e-02 0.0000000000000000e+00  5.4211697532049921e-02 2.9009603655296092e-05 0.0000000000000000e+00  -5.4250010536827632e-02 1.0327119761383503e-04 0.0000000000000000e+00  -5.0846204513093893e-02 4.5981635578732570e-04 0.0000000000000000e+00  -4.1359057712273299e-04 -5.3508275336229649e-02 0.0000000000000000e+00  -3.1398465846154116e-04 -5.0397723808021454e-02 0.0000000000000000e+00  -5.3559630404822672e-02 9.2156751222910753e-04 0.0000000000000000e+00  5.4359929587561043e-02 3.5557431435961208e-05 0.0000000000000000e+00  2.2404805833743268e-05 5.4341921164126797e-02 0.0000000000000000e+00  5.3547581145968998e-02 7.7260387424184479e-04 0.0000000000000000e+00  -6.4757358872050133e-03 3.3806739087561127e-02 0.0000000000000000e+00  0.0000000000000000e+00 0.0000000000000000e+00 0.0000000000000000e+00  0.0000000000000000e+00 0.0000000000000000e+00 0.0000000000000000e+00  0.0000000000000000e+00 0.0000000000000000e+00 0.0000000000000000e+00  -1.3307650770985777e-05 5.4326447324867647e-02 0.0000000000000000e+00  4.4910163081769330e-05 5.4155169440132482e-02 0.0000000000000000e+00  5.4990337075882709e-05 -5.4191623831712374e-02 0.0000000000000000e+00  -5.4273188468429268e-02 2.0945827125186871e-05 0.0000000000000000e+00  0.0000000000000000e+00 0.0000000000000000e+00 0.0000000000000000e+00  -2.6576312779564850e-05 -5.4276983349089862e-02 0.0000000000000000e+00  0.0000000000000000e+00 0.0000000000000000e+00 0.0000000000000000e+00  -5.0227801194524642e-02 -2.0194456918342046e-05 0.0000000000000000e+00  -7.7872596396514167e-05 -5.4256948941215126e-02 0.0000000000000000e+00  -3.9450680081630782e-03 5.0347561841761104e-02 0.0000000000000000e+00  -5.8145650681447362e-03 5.3004909342602588e-02 0.0000000000000000e+00  -5.4448622123513951e-02 7.3470247206892858e-06