<?xml version="1.0"?>
<VTKFile type="UnstructuredGrid"  version="0.1"  >
<UnstructuredGrid>
<Piece  NumberOfPoints="778" NumberOfCells="1401">
<Points>
<DataArray  type="Float64"  NumberOfComponents="3"  format="ascii">1 -1 0  6 -1 0  6 1 0  1 1 0  1 6 0  -1 6 0  -1 1 0  -6 1 0  -6 -1 0  -1 -1 0  -1 -6 0  1 -6 0  1 3.5 0  -1 3.5 0  -1 -3.5 0  1 -3.5 0  3.5 -1 0  3.5 1 0  -3.5 -1 0  -3.5 1 0  -1 -2.25 0  1 -2.25 0  2.25 -1 0  2.25 1 0  -1 2.25 0  1 2.25 0  -1 4.75 0  1 4.75 0  -4.75 -1 0  -4.75 1 0  -2.25 1 0  -2.25 -1 0  1 -4.75 0  -1 -4.75 0  4.75 1 0  4.75 -1 0  0 0 0  -2.875 0 0  -1.625 0 0  -4.125 0 0  -6 0 0  0 2.875 0  2.875 0 0  0 6 0  1.625 0 0  0 -2.875 0  0 -1.625 0  0 1.625 0  0 4.125 0  0 -6 0  0 -4.125 0  4.125 0 0  6 0 0  -0.109375 5.0625 0  -5.0625 -0.109375 0  -0.109375 -5.0625 0  5.0625 0.109375 0  0.8125 -0.1875 0  -0.1875 -0.8125 0  -0.8125 0.1875 0  -0.1875 0.8125 0  1 5.375 0  -5.375 1 0  1 -5.375 0  5.375 -1 0  0.53515625 0.46484375 0  -5.375 -1 0  -1 5.375 0  -1 -5.375 0  -0.5 -6 0  5.375 1 0  6 0.5 0  3.5 0.3046875 0  3.43125 -0.34765625 0  2.875 -1 0  4.125 1 0  0.3046875 3.5 0  -0.34765625 3.56875 0  -1 4.125 0  1 4.125 0  -0.3046875 2.25 0  0.34765625 2.18125 0  1 1.625 0  -1 -1.625 0  -0.3046875 -3.5 0  0.34765625 -3.56875 0  1 -4.125 0  0.3046875 -2.25 0  -0.34765625 -2.18125 0  -1 -4.125 0  -1 -2.875 0  1 -2.875 0  1 -1.625 0  1.625 -1 0  1.625 1 0  2.25 0.3046875 0  2.18125 -0.34765625 0  4.125 -1 0  2.875 1 0  1 2.875 0  -1 1.625 0  -1 2.875 0  -4.125 -1 0  -2.25 0.3046875 0  -2.31875 -0.34765625 0  -2.875 -1 0  -1.625 1 0  -4.125 1 0  -3.5 0.3046875 0  -3.56875 -0.34765625 0  -1.625 -1 0  -2.875 1 0  0.380626321794301 1.06853329530276 0  -1.110819327731092 -0.3739495798319328 0  0.3739495798319328 -1.110819327731092 0  1.151210293219304 0.3991939332620648 0  -0.5 -4.4375 0  0.5 -4.4375 0  5.481553398058253 -0.3712833737864077 0  0.5 4.4375 0  0.5 6 0  -0.522503783594538 -0.3265648647465863 0  -1.3125 0.5 0  -0.5 6 0  0.3265648647465863 -0.522503783594538 0  4.4375 0.5 0  4.4375 -0.5 0  0.5 -6 0  -6 -0.5 0  -5.481553398058253 0.3712833737864077 0  -4.55 -0.4296875 0  -4.4375 0.5 0  -0.5 4.4375 0  0.4792930825242718 5.026881067961165 0  0.4792930825242718 -5.026881067961165 0  -0.5 1.3125 0  1.3125 -0.5 0  -0.5 -1.3125 0  0.25 5.518539952962044 0  0.2125133872612723 -5.500076563152851 0  4.969341874373811 -0.5152550785163683 0  -4.969341874373811 0.5152550785163683 0  3.927189744345589 -0.4712876597840069 0  -5.554036458333333 -0.25 0  5.554036458333333 0.25 0  -0.4690710616438356 -5.462756849315069 0  -0.4690710616438356 5.462756849315069 0  -6 0.5 0  -1.59556436210848 -0.5 0  -3.058421751829955 -0.5 0  -0.5 2.731982421875 0  0.5 2.691578248170045 0  2.691578248170045 -0.5 0  1.641211254104555 0.5 0  0.5 -1.768017578125 0  0.5 -3.058421751829955 0  0.5 1.699267578125 0  3.018017578125 0.5 0  -0.5 -3.018017578125 0  -2.731982421875 0.5 0  6 -0.5 0  -4.050017120925308 -0.5006099332648871 0  -3.940668202764977 0.5371363767281105 0  3.940668202764977 0.5371363767281105 0  0.4517449476047904 3.958458083832335 0  -0.4517449476047904 -3.958458083832335 0  -1.809331797235023 0.5371363767281105 0  -0.4517449476047904 1.791541916167665 0  -0.0546875 4.59375 0  -5.006445312499999 -0.58984375 0  4.605643203883496 -0.04725424757281554 0  4.90625 0.5546875 0  -0.5546875 4.90625 0  0.04725424757281554 -4.605643203883496 0  -0.586116118210531 -4.995821561900013 0  -4.603710222472543 0.04846236095466061 0  -3.1875 0.65234375 0  0.6163907621110913 3.147502300973589 0  2.5625 0.65234375 0  0.6163907621110913 -2.602497699026411 0  -0.637456713551384 3.189259902731882 0  -0.637456713551384 -2.560740097268118 0  -0.34765625 0.34765625 0  -0.639453125 0.708203125 0  0.089630126953125 0.437286376953125 0  -0.4238281249999999 -1.746875 0  1.746875 -0.4238281249999999 0  -0.4238281249999999 4.003125 0  0.4238281249999999 -4.003125 0  -2.5625 -1 0  3.1875 -1 0  -0.09375 -1.21875 0  1.21875 -0.09375 0  0.4020305405760241 -0.1120343241705621 0  -0.6280191027904287 -0.7577505545748082 0  0.90625 -0.59375 0  -1.205500904741459 0.03633725387965409 0  -0.02129048848213058 1.202028574265107 0  -0.1120343241705621 -0.4020305405760241 0  1 1.3125 0  -2.003587563743074 -0.6442361556699288 0  0.6640077663259718 -1.395873598614549 0  5.6875 -1 0  0.6308138580859101 -5.592151086468728 0  -5.6875 -1 0  0.6568032075915271 5.612942566073222 0  5.616530031741774 0.6612875396772174 0  -5.6875 1 0  1.9375 1 0  -1.3125 -1 0  0.1524679547155687 -3.232579139388032 0  0.1524679547155687 2.517420860611968 0  -3.232579139388032 -0.1524679547155687 0  -1.932320553757026 -0.252759244693845 0  2.517420860611968 -0.1524679547155687 0  -0.04776045819569434 -2.464949198504599 0  -0.2420369079104247 3.187693796852321 0  3.751304711039982 -0.1203080877045035 0  -5.397601941771943 -0.609026059866711 0  1.3125 1 0  1.9375 -1 0  -0.6946315101963667 -2.018229242739021 0  -0.6946315101963667 3.731770757260979 0  1 -3.8125 0  2.014364435550335 0.6166648446293641 0  -1 5.6875 0  -1 -5.6875 0  -2.653476149871182 -0.5942957192996303 0  3.096523850128818 -0.5942957192996303 0  1 1.9375 0  -3.8125 -1 0  0.586975531244212 -0.7975955463807081 0  -0.2946248980953088 -4.743710873809568 0  2.625453376770019 0.2814788818359375 0  -3.124546623229981 0.2814788818359375 0  -0.1204856417894853 5.631800603217465 0  5.253862011026742 0.6581468962876398 0  -0.65234375 2.108701557941197 0  0.65234375 3.641298442058803 0  -0.65234375 -3.641298442058803 0  -0.25 -5.744880569758637 0  -4.4375 -1 0  -0.3166212631734941 -2.713595940002554 0  0.6591479224207506 0.1324305912687024 0  0.8660781906552419 0.6468634238104103 0  -0.9887189158197679 0.6452930723873549 0  0.3149351927204296 -1.460971774996065 0  -0.3572852727880474 -0.009629022788047503 0  2.09375 -0.6866724363772454 0  0.6866724363772454 -3.65625 0  0.6866724363772454 2.09375 0  -3.65625 -0.6866724363772454 0  -3.5371337890625 0.65234375 0  -0.1389584113023952 1.944025352615082 0  -2.151744288472698 0.65234375 0  -0.1389584113023951 -3.805974647384918 0  0.1389584113023951 3.805974647384918 0  -2.578772109813904 0.1857224367977529 0  3.171227890186096 0.1857224367977529 0  3.360315647536819 0.65234375 0  0.1857224367977528 -1.921227890186096 0  0.65234375 -2.110315647536819 0  1.894016528727564 0.2415406141485869 0  -3.738232421875 0 0  0.2516875549238616 3.139069895099618 0  -1.913724396854074 0.2011142179916434 0  0.1669456568161915 0.7843410671359501 0  -2.5625 1 0  -1 -3.1875 0  -1 2.5625 0  0.1736601499778735 4.857955663330752 0  -0.1893536587212888 2.577300639071919 0  -0.1893536587212888 -3.172699360928081 0  3.852271904453858 0.206603749322895 0  -3.8125 1 0  -0.1250095034621793 -5.421707592768541 0  3.8125 -1 0  3.617304217264373 -0.6578427703661498 0  0.2630176195580202 -2.636558318495885 0  0.2674330357770522 1.399517071108871 0  0.631726413079416 1.339254523727593 0  4.700571879807737 0.2813704945051134 0  0.7143844363649634 -3.319538455208831 0  2.430461544791169 -0.7143844363649634 0  0.7143844363649634 2.430461544791169 0  -3.319538455208831 -0.7143844363649634 0  5.687045771608623 -0.6520598572553891 0  -5.687045771608623 0.6520598572553891 0  -1.15625 -0.7048248829733235 0  3.438284572973296 -0.01860298867862281 0  -0.03021088078697859 3.451572359862192 0  2.216682837011589 -0.02159585961918548 0  -2.191580885932936 -0.03126387444658879 0  0.1857410764408683 1.895679405349457 0  3.103473238297955 -0.253270943723272 0  -2.646526761702045 -0.253270943723272 0  -2.333137350671861 -0.6791984914172315 0  -1 5.0625 0  -0.6971235589909319 5.213002544375844 0  0.01618705363819947 2.225929180591695 0  0.01618705363819947 -3.524070819408305 0  0.5690054882403073 0.7951310720450595 0  -0.5764940424412852 -3.329579265180942 0  -0.5764940424412852 2.420420734819058 0  3.8125 1 0  -5.372163860234628 0.04365139563106807 0  5.164108319316826 -0.225040894204947 0  -5.361952437854323 0.6744012088984681 0  -5.0625 1 0  5.286835586913878 -0.6616705837083201 0  -5.692815197359722 0.1186699900166531 0  5.663425996156958 -0.07763197815533956 0  -0.9219866027132193 -0.1143045829323572 0  -1.394333629759332 -0.2233077430199216 0  0.09322478991596644 -0.9616596638655462 0  5.0625 -1 0  -0.14412109375 -1.92169189453125 0  -4.28125 -0.7212148987671345 0  0.2649796277366407 0.1735162902120744 0  -4.907855692236596 0.1868230509619793 0  -1.9375 1 0  1 5.0625 0  0.6915124486819284 -5.272938212550202 0  0.683483242673902 5.284948082526911 0  2.5625 -1 0  -1 -3.8125 0  -1 1.9375 0  5.0625 1 0  -1 -1.9375 0  1 5.6875 0  1 -5.6875 0  -1.9375 -1 0  -1 -2.5625 0  -1 3.1875 0  1 -3.1875 0  1 -2.5625 0  1 2.5625 0  1 3.1875 0  -5.0625 -1 0  -1 -1.3125 0  1.3125 -1 0  -1 1.3125 0  -1 3.8125 0  -1 4.4375 0  -4.4375 1 0  4.4375 -1 0  4.4375 1 0  -1.3125 1 0  1 4.4375 0  1 -4.4375 0  -1 -5.0625 0  -1 -4.4375 0  -3.1875 1 0  2.5625 1 0  1 -1.9375 0  1 -1.3125 0  5.6875 1 0  1 3.8125 0  3.1875 1 0  -3.1875 -1 0  1 -5.0625 0  1.35138038998199 0.6675097549271188 0  -0.465625 0.986328125 0  1.435958105992309 0.2563920171199723 0  1.915914614192913 -0.145782394639918 0  -0.8764440609469509 -0.5746869313612541 0  5.355194559946098 0.01566259380337612 0  -5.69333042954964 -0.5242868300459975 0  1.78125 -0.7320750794491524 0  0.7320750794491525 -3.96875 0  -0.3959075548864684 5.166422468926435 0  -4.770522389068053 -0.2123670725088856 0  -4.714160156249999 -0.69234375 0  -4.273484403713342 -0.278160994327167 0  0.9642590244517505 0.08196089404241463 0  0.3500261717645397 -4.727285205957206 0  0.6740868006020392 -4.765147848348443 0  0.6797550207247084 -1.089747806381148 0  -5.186479934354063 0.3046329157552757 0  -5.263288238215326 -0.3369092276308425 0  -2.433484016245305 0.5442571297016638 0  0.1707808983307866 -3.82363304980935 0  -0.1554012991031027 3.867535742674252 0  4.855508096805579 -0.2283975605264581 0  3.644517238097614 0.5646428152488787 0  0.05699603874439441 -0.6452791208413911 0  -0.3550018917972689 -0.5695324323732931 0  0.6
[...]
<PointData  Vectors="u"> 
<DataArray  type="Float64"  Name="u"  NumberOfComponents="3" format="ascii">0.0000000000000000e+00 0.0000000000000000e+00 0.0000000000000000e+00  0.0000000000000000e+00 0.0000000000000000e+00 0.0000000000000000e+00  0.0000000000000000e+00 0.0000000000000000e+00 0.0000000000000000e+00  0.0000000000000000e+00 0.0000000000000000e+00 0.0000000000000000e+00  0.0000000000000000e+00 0.0000000000000000e+00 0.0000000000000000e+00  0.0000000000000000e+00 0.0000000000000000e+00 0.0000000000000000e+00  0.0000000000000000e+00 0.0000000000000000e+00 0.0000000000000000e+00  0.0000000000000000e+00 0.0000000000000000e+00 0.0000000000000000e+00  0.0000000000000000e+00 0.0000000000000000e+00 0.0000000000000000e+00  0.0000000000000000e+00 0.0000000000000000e+00 0.0000000000000000e+00  0.0000000000000000e+00 0.0000000000000000e+00 0.0000000000000000e+00  0.0000000000000000e+00 0.0000000000000000e+00 0.0000000000000000e+00  0.0000000000000000e+00 0.0000000000000000e+00 0.0000000000000000e+00  0.0000000000000000e+00 0.0000000000000000e+00 0.0000000000000000e+00  0.0000000000000000e+00 0.0000000000000000e+00 0.0000000000000000e+00  0.0000000000000000e+00 0.0000000000000000e+00 0.0000000000000000e+00  0.0000000000000000e+00 0.0000000000000000e+00 0.0000000000000000e+00  0.0000000000000000e+00 0.0000000000000000e+00 0.0000000000000000e+00  0.0000000000000000e+00 0.0000000000000000e+00 0.0000000000000000e+00  0.0000000000000000e+00 0.0000000000000000e+00 0.0000000000000000e+00  0.0000000000000000e+00 0.0000000000000000e+00 0.0000000000000000e+00  0.0000000000000000e+00 0.0000000000000000e+00 0.0000000000000000e+00  0.0000000000000000e+00 0.0000000000000000e+00 0.0000000000000000e+00  0.0000000000000000e+00 0.0000000000000000e+00 0.0000000000000000e+00  0.0000000000000000e+00 0.0000000000000000e+00 0.0000000000000000e+00  0.0000000000000000e+00 0.0000000000000000e+00 0.0000000000000000e+00  0.0000000000000000e+00 0.0000000000000000e+00 0.0000000000000000e+00  0.0000000000000000e+00 0.0000000000000000e+00 0.0000000000000000e+00  0.0000000000000000e+00 0.0000000000000000e+00 0.0000000000000000e+00  0.0000000000000000e+00 0.0000000000000000e+00 0.0000000000000000e+00  0.0000000000000000e+00 0.0000000000000000e+00 0.0000000000000000e+00  0.0000000000000000e+00 0.0000000000000000e+00 0.0000000000000000e+00  0.0000000000000000e+00 0.0000000000000000e+00 0.0000000000000000e+00  0.0000000000000000e+00 0.0000000000000000e+00 0.0000000000000000e+00  0.0000000000000000e+00 0.0000000000000000e+00 0.0000000000000000e+00  0.0000000000000000e+00 0.0000000000000000e+00 0.0000000000000000e+00  -2.0265834424670239e-04 1.0109316975313072e-04 0.0000000000000000e+00  5.2290795755821969e-02 -1.1461703080698884e-05 0.0000000000000000e+00  4.9955163839637128e-02 6.3171788948512974e-05 0.0000000000000000e+00  5.2352552727117668e-02 3.8391461287739508e-06 0.0000000000000000e+00  5.2407435632364371e-02 3.6552865940070515e-05 0.0000000000000000e+00  1.2720420475590420e-05 5.2278353938816566e-02 0.0000000000000000e+00  -5.2201540100396973e-02 4.4409352273085771e-05 0.0000000000000000e+00  3.9308037050477300e-05 5.2214024075273903e-02 0.0000000000000000e+00  -5.0054258347031227e-02 1.1936312215619273e-04 0.0000000000000000e+00  6.9960192690460269e-06 -5.2244077971027640e-02 0.0000000000000000e+00  -1.4219180943652179e-05 -4.9877820734928247e-02 0.0000000000000000e+00  4.1968769344052158e-05 4.9817837488909340e-02 0.0000000000000000e+00  3.6574369405335937e-05 5.2237418968297727e-02 0.0000000000000000e+00  4.1045084818755688e-05 -5.2231428918382131e-02 0.0000000000000000e+00  6.7739461190545372e-05 -5.2302525014241902e-02 0.0000000000000000e+00  -5.2362287394177628e-02 -1.8595890627653002e-05 0.0000000000000000e+00  -5.2328177212058576e-02 -4.7385848660009876e-05 0.0000000000000000e+00  -6.4689207630310735e-05 5.2362685002957481e-02 0.0000000000000000e+00  5.2303113529339945e-02 -6.8553447177232356e-05 0.0000000000000000e+00  -8.0926250572817789e-05 -5.2108235334079572e-02 0.0000000000000000e+00  -5.2224275806238542e-02 -6.3657944375573040e-05 0.0000000000000000e+00  -3.3880494012444411e-02 -7.0188712882455684e-03 0.0000000000000000e+00  6.8020824748234628e-03 -3.3398457543032223e-02 0.0000000000000000e+00  3.3292768452896936e-02 6.9293168812042723e-03 0.0000000000000000e+00  7.0235254195937938e-03 3.3453151327559674e-02 0.0000000000000000e+00  0.0000000000000000e+00 0.0000000000000000e+00 0.0000000000000000e+00  0.0000000000000000e+00 0.0000000000000000e+00 0.0000000000000000e+00  0.0000000000000000e+00 0.0000000000000000e+00 0.0000000000000000e+00  0.0000000000000000e+00 0.0000000000000000e+00 0.0000000000000000e+00  -2.3354083833507424e-02 1.9699643660367770e-02 0.0000000000000000e+00  0.0000000000000000e+00 0.0000000000000000e+00 0.0000000000000000e+00  0.0000000000000000e+00 0.0000000000000000e+00 0.0000000000000000e+00  0.0000000000000000e+00 0.0000000000000000e+00 0.0000000000000000e+00  5.9831374821514189e-05 -4.9855290530281988e-02 0.0000000000000000e+00  0.0000000000000000e+00 0.0000000000000000e+00 0.0000000000000000e+00  -5.2096687728202591e-02 -8.1186492879507208e-07 0.0000000000000000e+00  -5.2399148523373060e-02 6.1266215636282789e-05 0.0000000000000000e+00  -5.2277837087289454e-02 1.8003671512528926e-05 0.0000000000000000e+00  0.0000000000000000e+00 0.0000000000000000e+00 0.0000000000000000e+00  0.0000000000000000e+00 0.0000000000000000e+00 0.0000000000000000e+00  3.0162201054794514e-05 5.2237903465133989e-02 0.0000000000000000e+00  -4.0658115224332558e-06 5.2342267841289862e-02 0.0000000000000000e+00  0.0000000000000000e+00 0.0000000000000000e+00 0.0000000000000000e+00  0.0000000000000000e+00 0.0000000000000000e+00 0.0000000000000000e+00  2.4990132297929426e-04 5.2009209756696984e-02 0.0000000000000000e+00  -3.7353016114203787e-04 5.2083843892102862e-02 0.0000000000000000e+00  0.0000000000000000e+00 0.0000000000000000e+00 0.0000000000000000e+00  0.0000000000000000e+00 0.0000000000000000e+00 0.0000000000000000e+00  4.3617000828043600e-05 -5.2223936011338006e-02 0.0000000000000000e+00  1.6729919656501979e-05 -5.2277685543855583e-02 0.0000000000000000e+00  0.0000000000000000e+00 0.0000000000000000e+00 0.0000000000000000e+00  -2.2394438047546237e-04 -5.2053065367088536e-02 0.0000000000000000e+00  4.6170941690224708e-04 -5.2127713379230382e-02 0.0000000000000000e+00  0.0000000000000000e+00 0.0000000000000000e+00 0.0000000000000000e+00  0.0000000000000000e+00 0.0000000000000000e+00 0.0000000000000000e+00  0.0000000000000000e+00 0.0000000000000000e+00 0.0000000000000000e+00  0.0000000000000000e+00 0.0000000000000000e+00 0.0000000000000000e+00  0.0000000000000000e+00 0.0000000000000000e+00 0.0000000000000000e+00  0.0000000000000000e+00 0.0000000000000000e+00 0.0000000000000000e+00  -5.1998345574504258e-02 3.3491096827647544e-04 0.0000000000000000e+00  -5.2040946179664906e-02 -3.3737777677905572e-04 0.0000000000000000e+00  0.0000000000000000e+00 0.0000000000000000e+00 0.0000000000000000e+00  0.0000000000000000e+00 0.0000000000000000e+00 0.0000000000000000e+00  0.0000000000000000e+00 0.0000000000000000e+00 0.0000000000000000e+00  0.0000000000000000e+00 0.0000000000000000e+00 0.0000000000000000e+00  0.0000000000000000e+00 0.0000000000000000e+00 0.0000000000000000e+00  0.0000000000000000e+00 0.0000000000000000e+00 0.0000000000000000e+00  5.2134944190897314e-02 3.5075670753456135e-04 0.0000000000000000e+00  5.2220460624122264e-02 -3.1259748919830552e-04 0.0000000000000000e+00  0.0000000000000000e+00 0.0000000000000000e+00 0.0000000000000000e+00  0.0000000000000000e+00 0.0000000000000000e+00 0.0000000000000000e+00  0.0000000000000000e+00 0.0000000000000000e+00 0.0000000000000000e+00  5.2109073776211823e-02 8.8860267177071360e-05 0.0000000000000000e+00  5.2315805823288652e-02 2.4210305721606061e-05 0.0000000000000000e+00  0.0000000000000000e+00 0.0000000000000000e+00 0.0000000000000000e+00  0.0000000000000000e+00 0.0000000000000000e+00 0.0000000000000000e+00  -9.7159764636825310e-03 4.4136334767612084e-02 0.0000000000000000e+00  4.5411116753587479e-02 -9.5113917485343275e-03 0.0000000000000000e+00  -9.0551631809044561e-03 -4.5846499216206760e-02 0.0000000000000000e+00  -4.6402431478017363e-02 8.5480783928638428e-03 0.0000000000000000e+00  4.0123387761837188e-05 -4.9765509077034295e-02 0.0000000000000000e+00  -1.4337785156012952e-06 -5.2315584373694900e-02 0.0000000000000000e+00  -5.2337456091537102e-02 -7.1494484546217376e-05 0.0000000000000000e+00  3.5347237269707189e-06 5.2219955941281107e-02 0.0000000000000000e+00  4.5574678832943485e-05 5.2188341925919632e-02 0.0000000000000000e+00  2.2127808065602099e-02 -1.3823596705568193e-02 0.0000000000000000e+00  5.0471814137266521e-02 7.0769558356078436e-03 0.0000000000000000e+00  2.4771782403780003e-05 4.9845567256577655e-02 0.0000000000000000e+00  -1.3296532317230826e-02 -2.2089018795756855e-02 0.0000000000000000e+00  -5.2184763330349868e-02 -3.4056198581227295e-05 0.0000000000000000e+00  -5.2345301724396963e-02 7.4676076223944236e-06 0.0000000000000000e+00  2.9856453671306468e-05 -5.2181262202222668e-02 0.0000000000000000e+00  5.2423957255287153e-02 -2.5828922097849690e-07 0.0000000000000000e+00  5.2244529142982901e-02 5.4047562293036872e-05 0.0000000000000000e+00  5.2414119520833996e-02 6.4013830046044986e-06 0.0000000000000000e+00  4.9582215530409444e-02 -1.5175341599284945e-05 0.0000000000000000e+00  1.9974146516553182e-05 5.2059504458643428e-02 0.0000000000000000e+00  -3.5716160864404454e-05 5.2349163880083739e-02 0.0000000000000000e+00  -3.0266405006650536e-05 -5.2277063118960319e-02 0.0000000000000000e+00  7.5934752992770065e-03 5.1840637497010844e-02 0.0000000000000000e+00  -5.1003375716228816e-02 -7.0862798966282604e-03 0.0000000000000000e+00  7.0851165492890125e-03 -5.0531174965215878e-02 0.0000000000000000e+00  3.3534950126744264e-05 5.2233392101024845e-02 0.0000000000000000e+00  -2.5025073175830709e-05 -5.2330270627491356e-02 0.0000000000000000e+00  -5.2397500344613261e-02 -6.1068455959193693e-05 0.0000000000000000e+00  5.0122209990809970e-02 3.4183503611179832e-06 0.0000000000000000e+00  -5.2252927705626152e-02 -2.8402632487323214e-05 0.0000000000000000e+00  5.2317117657316940e-02 -6.9652294849115612e-05 0.0000000000000000e+00  -5.2282262250183786e-02 -1.3912824762530413e-04 0.0000000000000000e+00  4.1668233108284877e-06 -5.2143228871109393e-02 0.0000000000000000e+00  1.5413246088357851e-05 5.2187322760157681e-02 0.0000000000000000e+00  5.0671555534166704e-02 1.1685409597098739e-04 0.0000000000000000e+00  5.2041908226909739e-02 -2.7333207594752045e-03 0.0000000000000000e+00  5.2332987076269162e-02 1.4749475295344507e-05 0.0000000000000000e+00  -4.2375216576283983e-06 5.2273908047318775e-02 0.0000000000000000e+00  -9.3154761850432224e-05 5.2156303237421688e-02 0.0000000000000000e+00  -5.2261187881632885e-02 -2.6988413173413583e-05 0.0000000000000000e+00  -5.2129368119738617e-02 2.6990278686683682e-03 0.0000000000000000e+00  -1.6102254883914506e-03 -5.1930522176438627e-02 0.0000000000000000e+00  -1.0906064887767353e-05 -5.2213976870918388e-02 0.0000000000000000e+00  -1.8621522754891655e-03 5.2277763312238171e-02 0.0000000000000000e+00  -5.2154168362298435e-02 9.8841212059370522e-05 0.0000000000000000e+00  1.0070411173098020e-04 -5.2189525264135450e-02 0.0000000000000000e+00  5.2284302973375579e-02 2.4665687216992500e-06 0.0000000000000000e+00  -5.0527596115436606e-02 -5.0071418671655046e-05 0.0000000000000000e+00  5.2321682717189746e-02 -4.2403634713153277e-06 0.0000000000000000e+00  5.0234543598983765e-02 -1.7995866774797294e-04 0.0000000000000000e+00  -5.0222766895013447e-02 -3.8404752297746211e-04 0.0000000000000000e+00  2.9562046252440814e-05 5.2231450687841859e-02 0.0000000000000000e+00  8.1157976010286814e-05 -5.2235052782284484e-02 0.0000000000000000e+00  4.9966859727820917e-02 1.4178677279962425e-03 0.0000000000000000e+00  1.5062312133198390e-03 5.1639487098114209e-02 0.0000000000000000e+00  5.6609234104920195e-05 5.2274267812624925e-02 0.0000000000000000e+00  5.0697345880434487e-02 7.9627152395536364e-05 0.0000000000000000e+00  -5.2342755973314788e-02 -7.7937475835449445e-06 0.0000000000000000e+00  -4.7225536029077406e-02 8.1262753474058207e-05 0.0000000000000000e+00  6.5889542810404337e-05 4.6188589373929285e-02 0.0000000000000000e+00  -1.2391547511891765e-05 -5.2365779937145918e-02 0.0000000000000000e+00  -2.0241886216203678e-04 -4.6821367682847864e-02 0.0000000000000000e+00  5.2372645110057951e-02 -3.7443137299395764e-05 0.0000000000000000e+00  4.6848440372083126e-02 1.1321938085020501e-04 0.0000000000000000e+00  3.3610486457251988e-05 4.7672484039641576e-02 0.0000000000000000e+00  -5.1458109795574566e-02 2.8398068699792342e-04 0.0000000000000000e+00  -1.7594209428498637e-04 -4.7598246117699722e-02 0.0000000000000000e+00  2.2489630935587044e-04 4.8126098438193189e-02 0.0000000000000000e+00  -8.6639940310719230e-05 -4.8225216134603795e-02 0.0000000000000000e+00  1.4581421961323294e-02 1.4358243544806745e-02 0.0000000000000000e+00  2.7838013428633703e-02 3.2077966171647834e-02 0.0000000000000000e+00  -3.7497143202800554e-03 1.8282895794532485e-02 0.0000000000000000e+00  1.8157783963070849e-03 -5.1676888659850331e-02 0.0000000000000000e+00  -5.1522724848543908e-02 -1.6462138120944977e-03 0.0000000000000000e+00  -2.3483561117744051e-05 5.2148640324734048e-02 0.0000000000000000e+00  -1.5199863895224494e-06 -5.2241742696607467e-02 0.0000000000000000e+00  0.0000000000000000e+00 0.0000000000000000e+00 0.0000000000000000e+00  0.0000000000000000e+00 0.0000000000000000e+00 0.0000000000000000e+00  2.3036580676567588e-03 -4.4806331921608884e-02 0.0000000000000000e+00  -4.4796431651009654e-02 -1.5727415244356532e-03 0.0000000000000000e+00  -1.7025678169279225e-02 -4.4510265614645002e-03 0.0000000000000000e+00  2.7768439837442340e-02 -3.6330424259811041e-02 0.0000000000000000e+00  -4.5216112407122012e-02 -2.1386950700865177e-02 0.0000000000000000e+00  4.4612863668938518e-02 1.1240397187981582e-03 0.0000000000000000e+00  4.2982192190494002e-04 4.4218800777232906e-02 0.0000000000000000e+00  4.5711733575771948e-03 -1.6858317577237662e-02 0.0000000000000000e+00  0.0000000000000000e+00 0.0000000000000000e+00 0.0000000000000000e+00  4.8406140993626050e-02 -7.4990204081463281e-04 0.0000000000000000e+00  -4.3083883756502989e-03 -5.2192889713533787e-02 0.0000000000000000e+00  0.0000000000000000e+00 0.0000000000000000e+00 0.0000000000000000e+00  2.0468582667427338e-04 -4.8335819246479013e-02 0.0000000000000000e+00  0.0000000000000000e+00 0.0000000000000000e+00 0.0000000000000000e+00  2.7817074795222978e-04 4.8967351966763287e-02 0.0000000000000000e+00  -4.9122806071133410e-02 -4.2222584147566148e-04 0.0000000000000000e+00  0.0000000000000000e+00 0.0000000000000000e+00 0.0000000000000000e+00  0.0000000000000000e+00 0.0000000000000000e+00 0.0000000000000000e+00  0.0000000000000000e+00 0.0000000000000000e+00 0.0000000000000000e+00  3.3697849756172985e-05 -5.2261721736957756e-02 0.0000000000000000e+00  -7.6075570110981298e-05 5.2176678186211342e-02 0.0000000000000000e+00  5.2308105417169980e-02 1.4336770093912107e-05 0.0000000000000000e+00  5.1686596006722055e-02 -7.3273770574032763e-04 0.0000000000000000e+00  -5.2129117966644746e-02 -4.0436967283058112e-05 0.0000000000000000e+00  3.4977154961695521e-05 -5.2193473484624983e-02 0.0000000000000000e+00  7.3005356458563956e-05 5.2291680471975431e-02 0.0000000000000000e+00  -5.2380734490537234e-02 8.3557322373683385e-06 0.0000000000000000e+00  4.7589877010508506e-02 3.3326623890488138e-06 0.0000000000000000e+00  0.0000000000000000e+00 0.0000000000000000e+00 0.0000000000000000e+00  0.0000000000000000e+00 0.0000000000000000e+00 0.0000000000000000e+00  9.6064091229182749e-04 -4.9333446163069221e-02 0.0000000000000000e+00  -2.7106708693468048e-04 4.9468962308766087e-02 0.0000000000000000e+00  0.0000000000000000e+00 0.0000000000000000e+00 0.0000000000000000e+00  -5.0991249015798837e-02 5.9388639754648115e-04 0.0000000000000000e+00  0.0000000000000000e+00 0.0000000000000000e+00 0.0000000000000000e+00  0.0000000000000000e+00 0.0000000000000000e+00 0.0000000000000000e+00  5.0891360015309042e-02 1.8835675006590797e-04 0.0000000000000000e+00  -5.0522411593683508e-02 -5.2566511098506851e-05 0.0000000000000000e+00  0.0000000000000000e+00 0.0000000000000000e+00 0.0000000000000000e+00  0.0000000000000000e+00 0.0000000000000000e+00 0.0000000000000000e+00  -2.4471254737381001e-02 -3.8506078011971014e-02 0.0000000000000000e+00  -7.8961746524651021e-05 -5.2307722856135684e-02 0.0000000000000000e+00  -5.2124100842916327e-02 1.1742738701775882e-04 0.0000000000000000e+00  5.2256416504629692e-02 -1.0480422852765277e-05 0.0000000000000000e+00  4.6720267684604199e-05 5.2295270368003723e-02 0.0000000000000000e+00  -4.9473323546738765e-02 -2.2010929415138572e-04 0.0000000000000000e+00  2.6424583247408741e-04 4.9152872839855435e-02 0.0000000000000000e+00  -1.0616475252940334e-04 4.8362633039264538e-02 0.0000000000000000e+00  1.6508018951550706e-04 -4.8800930815570777e-02 0.0000000000000000e+00  6.1643714165492063e-05 -5.2185666450357618e-02 0.0000000000000000e+00  0.0000000000000000e+00 0.0000000000000000e+00 0.0000000000000000e+00  6.0378002957071310e-06 -5.2192526739841337e-02 0.0000000000000000e+00  -2.7355950037879856e-02 5.3633393635684253e-03 0.0000000000000000e+00  -4.0917074782280898e-02 2.7355323194422736e-02 0.0000000000000000e+00  4.7589699956419429e-02 2.1940963853632572e-02 0.0000000000000000e+00  -3.4655478868922695e-03 -4.9401302332949537e-02 0.0000000000000000e+00  1.4812675910323677e-02 -6.9024089836236034e-05 0.0000000000000000e+00  -4.9557425585890734e-02 -4.3133565467275999e-04 0.0000000000000000e+00  1.7345305155134398e-05 -4.9391074136072105e-02 0.0000000000000000e+00  -4.5380624291370257e-04 4.9527789821540220e-02 0.0000000000000000e+00  4.9114448315529906e-02 9.0164807423390259e-05 0.0000000000000000e+00  4.9581755290544358e-02 7.3554113662964004e-05 0.0000000000000000e+00  4.0363833012573144e-04 5.1601300823667665e-02 0.0000000000000000e+00  5.0027679330965739e-02 7.3435326043133425e-04 0.0000000000000000e+00  5.6219486013655500e-05 -5.2279814558962155e-02 0.0000000000000000e+00  4.1722599836234087e-05 5.2292250880383258e-02 0.0000000000000000e+00  5.2178305120704017e-02 3.0014058520480292e-05 0.0000000000000000e+00  -5.2233523425260595e-02 9.9001129610397714e-05 0.0000000000000000e+00  -4.8669596631918999e-02 4.3716862392082596e-04 0.0000000000000000e+00  -3.9928557791222077e-04 -5.1506556396074966e-02 0.0000000000000000e+00  -3.0929917914899546e-04 -4.8246376180947688e-02 0.0000000000000000e+00  -5.1553152248788141e-02 8.9974679312459724e-04 0.0000000000000000e+00  5.2336522929915731e-02 3.5219194412077843e-05 0.0000000000000000e+00  2.1273668851934447e-05 5.2306517929431189e-02 0.0000000000000000e+00  5.1542808574460648e-02 7.5372983505330999e-04 0.0000000000000000e+00  -6.2233547789075925e-03 3.2503775138215563e-02 0.0000000000000000e+00  0.0000000000000000e+00 0.0000000000000000e+00 0.0000000000000000e+00  0.0000000000000000e+00 0.0000000000000000e+00 0.0000000000000000e+00  0.0000000000000000e+00 0.0000000000000000e+00 0.0000000000000000e+00  -1.3296704582272166e-05 5.2306012261146839e-02 0.0000000000000000e+00  4.3272471521444734e-05 5.2131896006926963e-02 0.0000000000000000e+00  5.4144265939685396e-05 -5.2171881358147348e-02 0.0000000000000000e+00  -5.2225839604368857e-02 1.6603388907550861e-05 0.0000000000000000e+00  0.0000000000000000e+00 0.0000000000000000e+00 0.0000000000000000e+00  -2.4566970898943129e-05 -5.2259214805886259e-02 0.0000000000000000e+00  0.0000000000000000e+00 0.0000000000000000e+00 0.0000000000000000e+00  -4.8107186507808979e-02 -2.3303389875603949e-05 0.0000000000000000e+00  -7.7235112619567536e-05 -5.2226732108933201e-02 0.0000000000000000e+00  -3.8321079767769076e-03 4.8416223090825446e-02 0.0000000000000000e+00  -5.7291951703486773e-03 5.0981520076394150e-02 0.0000000000000000e+00  -5.2413150888530741e-02 7.0155428798903132e-06