<?xml version="1.0"?>
<VTKFile type="UnstructuredGrid"  version="0.1"  >
<UnstructuredGrid>
<Piece  NumberOfPoints="778" NumberOfCells="1401">
<Points>
<DataArray  type="Float64"  NumberOfComponents="3"  format="ascii">1 -1 0  6 -1 0  6 1 0  1 1 0  1 6 0  -1 6 0  -1 1 0  -6 1 0  -6 -1 0  -1 -1 0  -1 -6 0  1 -6 0  1 3.5 0  -1 3.5 0  -1 -3.5 0  1 -3.5 0  3.5 -1 0  3.5 1 0  -3.5 -1 0  -3.5 1 0  -1 -2.25 0  1 -2.25 0  2.25 -1 0  2.25 1 0  -1 2.25 0  1 2.25 0  -1 4.75 0  1 4.75 0  -4.75 -1 0  -4.75 1 0  -2.25 1 0  -2.25 -1 0  1 -4.75 0  -1 -4.75 0  4.75 1 0  4.75 -1 0  0 0 0  -2.875 0 0  -1.625 0 0  -4.125 0 0  -6 0 0  0 2.875 0  2.875 0 0  0 6 0  1.625 0 0  0 -2.875 0  0 -1.625 0  0 1.625 0  0 4.125 0  0 -6 0  0 -4.125 0  4.125 0 0  6 0 0  -0.109375 5.0625 0  -5.0625 -0.109375 0  -0.109375 -5.0625 0  5.0625 0.109375 0  0.8125 -0.1875 0  -0.1875 -0.8125 0  -0.8125 0.1875 0  -0.1875 0.8125 0  1 5.375 0  -5.375 1 0  1 -5.375 0  5.375 -1 0  0.53515625 0.46484375 0  -5.375 -1 0  -1 5.375 0  -1 -5.375 0  -0.5 -6 0  5.375 1 0  6 0.5 0  3.5 0.3046875 0  3.43125 -0.34765625 0  2.875 -1 0  4.125 1 0  0.3046875 3.5 0  -0.34765625 3.56875 0  -1 4.125 0  1 4.125 0  -0.3046875 2.25 0  0.34765625 2.18125 0  1 1.625 0  -1 -1.625 0  -0.3046875 -3.5 0  0.34765625 -3.56875 0  1 -4.125 0  0.3046875 -2.25 0  -0.34765625 -2.18125 0  -1 -4.125 0  -1 -2.875 0  1 -2.875 0  1 -1.625 0  1.625 -1 0  1.625 1 0  2.25 0.3046875 0  2.18125 -0.34765625 0  4.125 -1 0  2.875 1 0  1 2.875 0  -1 1.625 0  -1 2.875 0  -4.125 -1 0  -2.25 0.3046875 0  -2.31875 -0.34765625 0  -2.875 -1 0  -1.625 1 0  -4.125 1 0  -3.5 0.3046875 0  -3.56875 -0.34765625 0  -1.625 -1 0  -2.875 1 0  0.380626321794301 1.06853329530276 0  -1.110819327731092 -0.3739495798319328 0  0.3739495798319328 -1.110819327731092 0  1.151210293219304 0.3991939332620648 0  -0.5 -4.4375 0  0.5 -4.4375 0  5.481553398058253 -0.3712833737864077 0  0.5 4.4375 0  0.5 6 0  -0.522503783594538 -0.3265648647465863 0  -1.3125 0.5 0  -0.5 6 0  0.3265648647465863 -0.522503783594538 0  4.4375 0.5 0  4.4375 -0.5 0  0.5 -6 0  -6 -0.5 0  -5.481553398058253 0.3712833737864077 0  -4.55 -0.4296875 0  -4.4375 0.5 0  -0.5 4.4375 0  0.4792930825242718 5.026881067961165 0  0.4792930825242718 -5.026881067961165 0  -0.5 1.3125 0  1.3125 -0.5 0  -0.5 -1.3125 0  0.25 5.518539952962044 0  0.2125133872612723 -5.500076563152851 0  4.969341874373811 -0.5152550785163683 0  -4.969341874373811 0.5152550785163683 0  3.927189744345589 -0.4712876597840069 0  -5.554036458333333 -0.25 0  5.554036458333333 0.25 0  -0.4690710616438356 -5.462756849315069 0  -0.4690710616438356 5.462756849315069 0  -6 0.5 0  -1.59556436210848 -0.5 0  -3.058421751829955 -0.5 0  -0.5 2.731982421875 0  0.5 2.691578248170045 0  2.691578248170045 -0.5 0  1.641211254104555 0.5 0  0.5 -1.768017578125 0  0.5 -3.058421751829955 0  0.5 1.699267578125 0  3.018017578125 0.5 0  -0.5 -3.018017578125 0  -2.731982421875 0.5 0  6 -0.5 0  -4.050017120925308 -0.5006099332648871 0  -3.940668202764977 0.5371363767281105 0  3.940668202764977 0.5371363767281105 0  0.4517449476047904 3.958458083832335 0  -0.4517449476047904 -3.958458083832335 0  -1.809331797235023 0.5371363767281105 0  -0.4517449476047904 1.791541916167665 0  -0.0546875 4.59375 0  -5.006445312499999 -0.58984375 0  4.605643203883496 -0.04725424757281554 0  4.90625 0.5546875 0  -0.5546875 4.90625 0  0.04725424757281554 -4.605643203883496 0  -0.586116118210531 -4.995821561900013 0  -4.603710222472543 0.04846236095466061 0  -3.1875 0.65234375 0  0.6163907621110913 3.147502300973589 0  2.5625 0.65234375 0  0.6163907621110913 -2.602497699026411 0  -0.637456713551384 3.189259902731882 0  -0.637456713551384 -2.560740097268118 0  -0.34765625 0.34765625 0  -0.639453125 0.708203125 0  0.089630126953125 0.437286376953125 0  -0.4238281249999999 -1.746875 0  1.746875 -0.4238281249999999 0  -0.4238281249999999 4.003125 0  0.4238281249999999 -4.003125 0  -2.5625 -1 0  3.1875 -1 0  -0.09375 -1.21875 0  1.21875 -0.09375 0  0.4020305405760241 -0.1120343241705621 0  -0.6280191027904287 -0.7577505545748082 0  0.90625 -0.59375 0  -1.205500904741459 0.03633725387965409 0  -0.02129048848213058 1.202028574265107 0  -0.1120343241705621 -0.4020305405760241 0  1 1.3125 0  -2.003587563743074 -0.6442361556699288 0  0.6640077663259718 -1.395873598614549 0  5.6875 -1 0  0.6308138580859101 -5.592151086468728 0  -5.6875 -1 0  0.6568032075915271 5.612942566073222 0  5.616530031741774 0.6612875396772174 0  -5.6875 1 0  1.9375 1 0  -1.3125 -1 0  0.1524679547155687 -3.232579139388032 0  0.1524679547155687 2.517420860611968 0  -3.232579139388032 -0.1524679547155687 0  -1.932320553757026 -0.252759244693845 0  2.517420860611968 -0.1524679547155687 0  -0.04776045819569434 -2.464949198504599 0  -0.2420369079104247 3.187693796852321 0  3.751304711039982 -0.1203080877045035 0  -5.397601941771943 -0.609026059866711 0  1.3125 1 0  1.9375 -1 0  -0.6946315101963667 -2.018229242739021 0  -0.6946315101963667 3.731770757260979 0  1 -3.8125 0  2.014364435550335 0.6166648446293641 0  -1 5.6875 0  -1 -5.6875 0  -2.653476149871182 -0.5942957192996303 0  3.096523850128818 -0.5942957192996303 0  1 1.9375 0  -3.8125 -1 0  0.586975531244212 -0.7975955463807081 0  -0.2946248980953088 -4.743710873809568 0  2.625453376770019 0.2814788818359375 0  -3.124546623229981 0.2814788818359375 0  -0.1204856417894853 5.631800603217465 0  5.253862011026742 0.6581468962876398 0  -0.65234375 2.108701557941197 0  0.65234375 3.641298442058803 0  -0.65234375 -3.641298442058803 0  -0.25 -5.744880569758637 0  -4.4375 -1 0  -0.3166212631734941 -2.713595940002554 0  0.6591479224207506 0.1324305912687024 0  0.8660781906552419 0.6468634238104103 0  -0.9887189158197679 0.6452930723873549 0  0.3149351927204296 -1.460971774996065 0  -0.3572852727880474 -0.009629022788047503 0  2.09375 -0.6866724363772454 0  0.6866724363772454 -3.65625 0  0.6866724363772454 2.09375 0  -3.65625 -0.6866724363772454 0  -3.5371337890625 0.65234375 0  -0.1389584113023952 1.944025352615082 0  -2.151744288472698 0.65234375 0  -0.1389584113023951 -3.805974647384918 0  0.1389584113023951 3.805974647384918 0  -2.578772109813904 0.1857224367977529 0  3.171227890186096 0.1857224367977529 0  3.360315647536819 0.65234375 0  0.1857224367977528 -1.921227890186096 0  0.65234375 -2.110315647536819 0  1.894016528727564 0.2415406141485869 0  -3.738232421875 0 0  0.2516875549238616 3.139069895099618 0  -1.913724396854074 0.2011142179916434 0  0.1669456568161915 0.7843410671359501 0  -2.5625 1 0  -1 -3.1875 0  -1 2.5625 0  0.1736601499778735 4.857955663330752 0  -0.1893536587212888 2.577300639071919 0  -0.1893536587212888 -3.172699360928081 0  3.852271904453858 0.206603749322895 0  -3.8125 1 0  -0.1250095034621793 -5.421707592768541 0  3.8125 -1 0  3.617304217264373 -0.6578427703661498 0  0.2630176195580202 -2.636558318495885 0  0.2674330357770522 1.399517071108871 0  0.631726413079416 1.339254523727593 0  4.700571879807737 0.2813704945051134 0  0.7143844363649634 -3.319538455208831 0  2.430461544791169 -0.7143844363649634 0  0.7143844363649634 2.430461544791169 0  -3.319538455208831 -0.7143844363649634 0  5.687045771608623 -0.6520598572553891 0  -5.687045771608623 0.6520598572553891 0  -1.15625 -0.7048248829733235 0  3.438284572973296 -0.01860298867862281 0  -0.03021088078697859 3.451572359862192 0  2.216682837011589 -0.02159585961918548 0  -2.191580885932936 -0.03126387444658879 0  0.1857410764408683 1.895679405349457 0  3.103473238297955 -0.253270943723272 0  -2.646526761702045 -0.253270943723272 0  -2.333137350671861 -0.6791984914172315 0  -1 5.0625 0  -0.6971235589909319 5.213002544375844 0  0.01618705363819947 2.225929180591695 0  0.01618705363819947 -3.524070819408305 0  0.5690054882403073 0.7951310720450595 0  -0.5764940424412852 -3.329579265180942 0  -0.5764940424412852 2.420420734819058 0  3.8125 1 0  -5.372163860234628 0.04365139563106807 0  5.164108319316826 -0.225040894204947 0  -5.361952437854323 0.6744012088984681 0  -5.0625 1 0  5.286835586913878 -0.6616705837083201 0  -5.692815197359722 0.1186699900166531 0  5.663425996156958 -0.07763197815533956 0  -0.9219866027132193 -0.1143045829323572 0  -1.394333629759332 -0.2233077430199216 0  0.09322478991596644 -0.9616596638655462 0  5.0625 -1 0  -0.14412109375 -1.92169189453125 0  -4.28125 -0.7212148987671345 0  0.2649796277366407 0.1735162902120744 0  -4.907855692236596 0.1868230509619793 0  -1.9375 1 0  1 5.0625 0  0.6915124486819284 -5.272938212550202 0  0.683483242673902 5.284948082526911 0  2.5625 -1 0  -1 -3.8125 0  -1 1.9375 0  5.0625 1 0  -1 -1.9375 0  1 5.6875 0  1 -5.6875 0  -1.9375 -1 0  -1 -2.5625 0  -1 3.1875 0  1 -3.1875 0  1 -2.5625 0  1 2.5625 0  1 3.1875 0  -5.0625 -1 0  -1 -1.3125 0  1.3125 -1 0  -1 1.3125 0  -1 3.8125 0  -1 4.4375 0  -4.4375 1 0  4.4375 -1 0  4.4375 1 0  -1.3125 1 0  1 4.4375 0  1 -4.4375 0  -1 -5.0625 0  -1 -4.4375 0  -3.1875 1 0  2.5625 1 0  1 -1.9375 0  1 -1.3125 0  5.6875 1 0  1 3.8125 0  3.1875 1 0  -3.1875 -1 0  1 -5.0625 0  1.35138038998199 0.6675097549271188 0  -0.465625 0.986328125 0  1.435958105992309 0.2563920171199723 0  1.915914614192913 -0.145782394639918 0  -0.8764440609469509 -0.5746869313612541 0  5.355194559946098 0.01566259380337612 0  -5.69333042954964 -0.5242868300459975 0  1.78125 -0.7320750794491524 0  0.7320750794491525 -3.96875 0  -0.3959075548864684 5.166422468926435 0  -4.770522389068053 -0.2123670725088856 0  -4.714160156249999 -0.69234375 0  -4.273484403713342 -0.278160994327167 0  0.9642590244517505 0.08196089404241463 0  0.3500261717645397 -4.727285205957206 0  0.6740868006020392 -4.765147848348443 0  0.6797550207247084 -1.089747806381148 0  -5.186479934354063 0.3046329157552757 0  -5.263288238215326 -0.3369092276308425 0  -2.433484016245305 0.5442571297016638 0  0.1707808983307866 -3.82363304980935 0  -0.1554012991031027 3.867535742674252 0  4.855508096805579 -0.2283975605264581 0  3.644517238097614 0.5646428152488787 0  0.05699603874439441 -0.6452791208413911 0  -0.3550018917972689 -0.5695324323732931 0  0.6
[...]
<PointData  Vectors="u"> 
<DataArray  type="Float64"  Name="u"  NumberOfComponents="3" format="ascii">0.0000000000000000e+00 0.0000000000000000e+00 0.0000000000000000e+00  0.0000000000000000e+00 0.0000000000000000e+00 0.0000000000000000e+00  0.0000000000000000e+00 0.0000000000000000e+00 0.0000000000000000e+00  0.0000000000000000e+00 0.0000000000000000e+00 0.0000000000000000e+00  0.0000000000000000e+00 0.0000000000000000e+00 0.0000000000000000e+00  0.0000000000000000e+00 0.0000000000000000e+00 0.0000000000000000e+00  0.0000000000000000e+00 0.0000000000000000e+00 0.0000000000000000e+00  0.0000000000000000e+00 0.0000000000000000e+00 0.0000000000000000e+00  0.0000000000000000e+00 0.0000000000000000e+00 0.0000000000000000e+00  0.0000000000000000e+00 0.0000000000000000e+00 0.0000000000000000e+00  0.0000000000000000e+00 0.0000000000000000e+00 0.0000000000000000e+00  0.0000000000000000e+00 0.0000000000000000e+00 0.0000000000000000e+00  0.0000000000000000e+00 0.0000000000000000e+00 0.0000000000000000e+00  0.0000000000000000e+00 0.0000000000000000e+00 0.0000000000000000e+00  0.0000000000000000e+00 0.0000000000000000e+00 0.0000000000000000e+00  0.0000000000000000e+00 0.0000000000000000e+00 0.0000000000000000e+00  0.0000000000000000e+00 0.0000000000000000e+00 0.0000000000000000e+00  0.0000000000000000e+00 0.0000000000000000e+00 0.0000000000000000e+00  0.0000000000000000e+00 0.0000000000000000e+00 0.0000000000000000e+00  0.0000000000000000e+00 0.0000000000000000e+00 0.0000000000000000e+00  0.0000000000000000e+00 0.0000000000000000e+00 0.0000000000000000e+00  0.0000000000000000e+00 0.0000000000000000e+00 0.0000000000000000e+00  0.0000000000000000e+00 0.0000000000000000e+00 0.0000000000000000e+00  0.0000000000000000e+00 0.0000000000000000e+00 0.0000000000000000e+00  0.0000000000000000e+00 0.0000000000000000e+00 0.0000000000000000e+00  0.0000000000000000e+00 0.0000000000000000e+00 0.0000000000000000e+00  0.0000000000000000e+00 0.0000000000000000e+00 0.0000000000000000e+00  0.0000000000000000e+00 0.0000000000000000e+00 0.0000000000000000e+00  0.0000000000000000e+00 0.0000000000000000e+00 0.0000000000000000e+00  0.0000000000000000e+00 0.0000000000000000e+00 0.0000000000000000e+00  0.0000000000000000e+00 0.0000000000000000e+00 0.0000000000000000e+00  0.0000000000000000e+00 0.0000000000000000e+00 0.0000000000000000e+00  0.0000000000000000e+00 0.0000000000000000e+00 0.0000000000000000e+00  0.0000000000000000e+00 0.0000000000000000e+00 0.0000000000000000e+00  0.0000000000000000e+00 0.0000000000000000e+00 0.0000000000000000e+00  0.0000000000000000e+00 0.0000000000000000e+00 0.0000000000000000e+00  -8.3670187110035680e-05 1.2443537928807888e-05 0.0000000000000000e+00  1.2305681665669886e-02 -3.2399916280838207e-06 0.0000000000000000e+00  1.1690243308369147e-02 4.2768729728481818e-05 0.0000000000000000e+00  1.2305690726720331e-02 -4.2834288464743611e-07 0.0000000000000000e+00  1.2324053440997467e-02 1.1348527196078268e-05 0.0000000000000000e+00  2.8792343356970116e-06 1.2274207667146720e-02 0.0000000000000000e+00  -1.2273534085724746e-02 1.5406464305367243e-05 0.0000000000000000e+00  1.1565243471085071e-05 1.2288492920746717e-02 0.0000000000000000e+00  -1.1710264203877496e-02 4.8985883270548674e-05 0.0000000000000000e+00  4.9244944775918857e-06 -1.2282579925012952e-02 0.0000000000000000e+00  -1.9606743628158950e-05 -1.1602599287939063e-02 0.0000000000000000e+00  1.5290378619695520e-05 1.1613841631131513e-02 0.0000000000000000e+00  1.3505894088196000e-05 1.2292514347907036e-02 0.0000000000000000e+00  1.3618829762218891e-05 -1.2280891979196259e-02 0.0000000000000000e+00  1.7099603245434291e-05 -1.2307828375732495e-02 0.0000000000000000e+00  -1.2313759880650692e-02 -2.1934771795403966e-06 0.0000000000000000e+00  -1.2296772798421601e-02 -1.2009341165472800e-05 0.0000000000000000e+00  -1.2044706900228930e-05 1.2315846901186502e-02 0.0000000000000000e+00  1.2275605461210815e-02 -9.5519731169318435e-06 0.0000000000000000e+00  -1.7292749573080813e-05 -1.2200199365942764e-02 0.0000000000000000e+00  -1.2242862551865344e-02 -1.3230993943376274e-05 0.0000000000000000e+00  -7.8984621920563831e-03 -1.6850662063849760e-03 0.0000000000000000e+00  1.5161564744627029e-03 -7.6827559261030071e-03 0.0000000000000000e+00  7.6547619646559111e-03 1.7312007796333123e-03 0.0000000000000000e+00  1.6487513655883818e-03 7.6873139392448341e-03 0.0000000000000000e+00  0.0000000000000000e+00 0.0000000000000000e+00 0.0000000000000000e+00  0.0000000000000000e+00 0.0000000000000000e+00 0.0000000000000000e+00  0.0000000000000000e+00 0.0000000000000000e+00 0.0000000000000000e+00  0.0000000000000000e+00 0.0000000000000000e+00 0.0000000000000000e+00  -5.4725957845989963e-03 4.5319615097284506e-03 0.0000000000000000e+00  0.0000000000000000e+00 0.0000000000000000e+00 0.0000000000000000e+00  0.0000000000000000e+00 0.0000000000000000e+00 0.0000000000000000e+00  0.0000000000000000e+00 0.0000000000000000e+00 0.0000000000000000e+00  2.5358906262129106e-05 -1.1749933255441202e-02 0.0000000000000000e+00  0.0000000000000000e+00 0.0000000000000000e+00 0.0000000000000000e+00  -1.2255872131633434e-02 -4.5236055946642406e-06 0.0000000000000000e+00  -1.2109272209383097e-02 2.2315254535225917e-05 0.0000000000000000e+00  -1.2067087020212025e-02 -6.1690033813960345e-06 0.0000000000000000e+00  0.0000000000000000e+00 0.0000000000000000e+00 0.0000000000000000e+00  0.0000000000000000e+00 0.0000000000000000e+00 0.0000000000000000e+00  6.2538005487960958e-06 1.2232124278368697e-02 0.0000000000000000e+00  -4.6863232654866301e-06 1.2208216153246791e-02 0.0000000000000000e+00  0.0000000000000000e+00 0.0000000000000000e+00 0.0000000000000000e+00  0.0000000000000000e+00 0.0000000000000000e+00 0.0000000000000000e+00  5.8163903056578354e-05 1.2080953304347804e-02 0.0000000000000000e+00  -1.0381269000344478e-04 1.2193024527353514e-02 0.0000000000000000e+00  0.0000000000000000e+00 0.0000000000000000e+00 0.0000000000000000e+00  0.0000000000000000e+00 0.0000000000000000e+00 0.0000000000000000e+00  2.4174633225593999e-05 -1.2151139818090807e-02 0.0000000000000000e+00  4.1005737444088795e-06 -1.2248189973634348e-02 0.0000000000000000e+00  0.0000000000000000e+00 0.0000000000000000e+00 0.0000000000000000e+00  -5.6677587394937432e-05 -1.2231405842849820e-02 0.0000000000000000e+00  1.2291726470793686e-04 -1.2140517696421783e-02 0.0000000000000000e+00  0.0000000000000000e+00 0.0000000000000000e+00 0.0000000000000000e+00  0.0000000000000000e+00 0.0000000000000000e+00 0.0000000000000000e+00  0.0000000000000000e+00 0.0000000000000000e+00 0.0000000000000000e+00  0.0000000000000000e+00 0.0000000000000000e+00 0.0000000000000000e+00  0.0000000000000000e+00 0.0000000000000000e+00 0.0000000000000000e+00  0.0000000000000000e+00 0.0000000000000000e+00 0.0000000000000000e+00  -1.2020898096416691e-02 1.0446977317177207e-04 0.0000000000000000e+00  -1.2185835083100579e-02 -8.6899606662172750e-05 0.0000000000000000e+00  0.0000000000000000e+00 0.0000000000000000e+00 0.0000000000000000e+00  0.0000000000000000e+00 0.0000000000000000e+00 0.0000000000000000e+00  0.0000000000000000e+00 0.0000000000000000e+00 0.0000000000000000e+00  0.0000000000000000e+00 0.0000000000000000e+00 0.0000000000000000e+00  0.0000000000000000e+00 0.0000000000000000e+00 0.0000000000000000e+00  0.0000000000000000e+00 0.0000000000000000e+00 0.0000000000000000e+00  1.1993958272241412e-02 1.2279972261418197e-04 0.0000000000000000e+00  1.2044568045080859e-02 -6.9784747712505228e-05 0.0000000000000000e+00  0.0000000000000000e+00 0.0000000000000000e+00 0.0000000000000000e+00  0.0000000000000000e+00 0.0000000000000000e+00 0.0000000000000000e+00  0.0000000000000000e+00 0.0000000000000000e+00 0.0000000000000000e+00  1.2038184147493310e-02 1.9324427799045100e-05 0.0000000000000000e+00  1.2264472049581631e-02 4.9663097607108597e-06 0.0000000000000000e+00  0.0000000000000000e+00 0.0000000000000000e+00 0.0000000000000000e+00  0.0000000000000000e+00 0.0000000000000000e+00 0.0000000000000000e+00  -2.2502458399634496e-03 1.0124781385021597e-02 0.0000000000000000e+00  1.0428401380578526e-02 -2.3550486943912257e-03 0.0000000000000000e+00  -2.0751604779266925e-03 -1.0594634006465938e-02 0.0000000000000000e+00  -1.0722592167003395e-02 2.0664343259367713e-03 0.0000000000000000e+00  2.1141220110227794e-05 -1.1664755716209075e-02 0.0000000000000000e+00  -5.3312637620282567e-06 -1.2191139107599806e-02 0.0000000000000000e+00  -1.2103984750288838e-02 -1.3092316144701851e-05 0.0000000000000000e+00  -1.2371351407447742e-06 1.2167868205085490e-02 0.0000000000000000e+00  3.2114575847192573e-05 1.2069233364403244e-02 0.0000000000000000e+00  5.1590688281773706e-03 -3.2143866947999125e-03 0.0000000000000000e+00  1.1658940460232557e-02 1.6761165383470090e-03 0.0000000000000000e+00  1.8648311918703958e-05 1.1727150156555852e-02 0.0000000000000000e+00  -2.9993001688031909e-03 -5.0628893833590512e-03 0.0000000000000000e+00  -1.1993238840707939e-02 1.8453329802484907e-05 0.0000000000000000e+00  -1.2190482401054444e-02 7.2083466402736669e-06 0.0000000000000000e+00  3.5570961580754299e-05 -1.2009838810574748e-02 0.0000000000000000e+00  1.2222311760987798e-02 9.5203798863104855e-06 0.0000000000000000e+00  1.2076199876585970e-02 1.7988835452918463e-05 0.0000000000000000e+00  1.2157170883807673e-02 4.0928614549916532e-06 0.0000000000000000e+00  1.1536794239148369e-02 -5.7337133657644387e-06 0.0000000000000000e+00  2.2326339727576897e-05 1.2055482541746114e-02 0.0000000000000000e+00  -1.9276520446073895e-05 1.2185482872918216e-02 0.0000000000000000e+00  -5.6672471676652625e-06 -1.2106924155382656e-02 0.0000000000000000e+00  1.9531334912167011e-03 1.1998050933012932e-02 0.0000000000000000e+00  -1.1718911924752549e-02 -1.8220158589233764e-03 0.0000000000000000e+00  1.6533086644128618e-03 -1.1695401301610089e-02 0.0000000000000000e+00  9.4803321039907336e-06 1.2246844646520027e-02 0.0000000000000000e+00  -4.1680301345980019e-06 -1.2314426037828841e-02 0.0000000000000000e+00  -1.2197000993576153e-02 -3.0742255322678843e-05 0.0000000000000000e+00  1.1539606023285985e-02 1.0693225175950881e-05 0.0000000000000000e+00  -1.2063640822063730e-02 -5.5789515741144081e-06 0.0000000000000000e+00  1.2142905178506937e-02 1.3806834489322481e-06 0.0000000000000000e+00  -1.2248565095596187e-02 -3.0914428053752006e-05 0.0000000000000000e+00  7.9756839137295437e-06 -1.2092562157997621e-02 0.0000000000000000e+00  1.8891761465133980e-06 1.2075439653139621e-02 0.0000000000000000e+00  1.1804221667634616e-02 3.7477819510174843e-05 0.0000000000000000e+00  1.2094375004579661e-02 -7.0789040112149623e-04 0.0000000000000000e+00  1.2123675396663411e-02 -3.3299245445517350e-06 0.0000000000000000e+00  1.2334257467103497e-05 1.2091366444469830e-02 0.0000000000000000e+00  -3.4403203963937769e-05 1.2042488637976231e-02 0.0000000000000000e+00  -1.2098788178563252e-02 -2.4868091004616656e-06 0.0000000000000000e+00  -1.2123409502517276e-02 7.2451819923015576e-04 0.0000000000000000e+00  -4.8659746563005710e-04 -1.2145426869611823e-02 0.0000000000000000e+00  9.0028689215100647e-06 -1.2038934520990962e-02 0.0000000000000000e+00  -5.3628439989248581e-04 1.2226870755361371e-02 0.0000000000000000e+00  -1.2186272052950330e-02 3.5506912564015384e-05 0.0000000000000000e+00  1.5111438648087957e-05 -1.2091123087250593e-02 0.0000000000000000e+00  1.2028807436962703e-02 1.2053172896881116e-06 0.0000000000000000e+00  -1.1653462246287698e-02 1.7211526050762466e-06 0.0000000000000000e+00  1.2190498111356855e-02 -2.6595592574530650e-06 0.0000000000000000e+00  1.1611726465779137e-02 -4.3334396353353142e-05 0.0000000000000000e+00  -1.1634985346947057e-02 -8.5241674647157481e-05 0.0000000000000000e+00  1.7124213444979709e-05 1.2069401483688754e-02 0.0000000000000000e+00  1.9502832898900620e-05 -1.2051932107182145e-02 0.0000000000000000e+00  1.1676315777057810e-02 3.7202240427737634e-04 0.0000000000000000e+00  4.1421289565462329e-04 1.2033592680188094e-02 0.0000000000000000e+00  1.6690993589329428e-05 1.2284667510340604e-02 0.0000000000000000e+00  1.1699018870561281e-02 -4.0089824487464011e-06 0.0000000000000000e+00  -1.2306778697968640e-02 -2.9246728766267502e-06 0.0000000000000000e+00  -1.0435972656248427e-02 2.3974178948106646e-05 0.0000000000000000e+00  1.1473059998674216e-05 1.0001427226932598e-02 0.0000000000000000e+00  -1.8004221007584831e-06 -1.2305964983493506e-02 0.0000000000000000e+00  -3.2869763076219101e-05 -1.0228484763965253e-02 0.0000000000000000e+00  1.2291237747627174e-02 -4.8113437141011611e-06 0.0000000000000000e+00  9.9962577528209234e-03 1.7007738829705422e-05 0.0000000000000000e+00  -6.7430018486598433e-06 1.0441970562114575e-02 0.0000000000000000e+00  -1.1856886053848548e-02 7.8085463106848478e-05 0.0000000000000000e+00  -1.4211440887079293e-05 -1.0429829139415498e-02 0.0000000000000000e+00  3.7684753043345576e-05 1.0353623652567650e-02 0.0000000000000000e+00  2.0739908838908648e-06 -1.0143885617453396e-02 0.0000000000000000e+00  3.3508955595336573e-03 3.2297262971466966e-03 0.0000000000000000e+00  6.2640913198025771e-03 7.3638920160538079e-03 0.0000000000000000e+00  -8.0616064613980973e-04 4.2082199384922631e-03 0.0000000000000000e+00  4.8622369049249753e-04 -1.2031801100814667e-02 0.0000000000000000e+00  -1.2018830636332850e-02 -4.3625726915600847e-04 0.0000000000000000e+00  -6.6760638022696946e-06 1.2058336963512739e-02 0.0000000000000000e+00  6.4738198698169799e-06 -1.2080853671514100e-02 0.0000000000000000e+00  0.0000000000000000e+00 0.0000000000000000e+00 0.0000000000000000e+00  0.0000000000000000e+00 0.0000000000000000e+00 0.0000000000000000e+00  5.5830449689552627e-04 -1.0338989655749524e-02 0.0000000000000000e+00  -1.0423746300696660e-02 -3.0791940880815278e-04 0.0000000000000000e+00  -3.9327965733134511e-03 -1.0011587903969046e-03 0.0000000000000000e+00  6.5681518098729434e-03 -8.3772813449350791e-03 0.0000000000000000e+00  -1.0254838135489074e-02 -5.2308609379895284e-03 0.0000000000000000e+00  1.0416136660522506e-02 3.3002842584870412e-04 0.0000000000000000e+00  3.8588837711734200e-05 1.0275363936415021e-02 0.0000000000000000e+00  1.0222085589487498e-03 -3.8975687769808552e-03 0.0000000000000000e+00  0.0000000000000000e+00 0.0000000000000000e+00 0.0000000000000000e+00  1.0498955077063761e-02 -1.7707245171173609e-04 0.0000000000000000e+00  -1.4417378658672152e-03 -1.2174355684638831e-02 0.0000000000000000e+00  0.0000000000000000e+00 0.0000000000000000e+00 0.0000000000000000e+00  3.9010894428152739e-05 -1.0389582894459052e-02 0.0000000000000000e+00  0.0000000000000000e+00 0.0000000000000000e+00 0.0000000000000000e+00  4.9799250329895216e-05 1.0662331759287897e-02 0.0000000000000000e+00  -1.0694902517617287e-02 -8.1762384256721271e-05 0.0000000000000000e+00  0.0000000000000000e+00 0.0000000000000000e+00 0.0000000000000000e+00  0.0000000000000000e+00 0.0000000000000000e+00 0.0000000000000000e+00  0.0000000000000000e+00 0.0000000000000000e+00 0.0000000000000000e+00  6.4320476496399875e-06 -1.2269097168300373e-02 0.0000000000000000e+00  -2.3414784262543606e-05 1.2242200342085823e-02 0.0000000000000000e+00  1.2293701949432773e-02 2.4664343604374979e-06 0.0000000000000000e+00  1.2084071184328655e-02 -1.9764764163321961e-04 0.0000000000000000e+00  -1.2239018994141740e-02 -1.2897698958453433e-05 0.0000000000000000e+00  1.0168779902945737e-05 -1.2249071093513956e-02 0.0000000000000000e+00  1.1359363971571058e-05 1.2188579303713493e-02 0.0000000000000000e+00  -1.2294159210086451e-02 2.2475646931560209e-06 0.0000000000000000e+00  1.0122132714634470e-02 1.7832348665132028e-06 0.0000000000000000e+00  0.0000000000000000e+00 0.0000000000000000e+00 0.0000000000000000e+00  0.0000000000000000e+00 0.0000000000000000e+00 0.0000000000000000e+00  2.5674574501731657e-04 -1.0623792485357619e-02 0.0000000000000000e+00  -5.1919122661143282e-05 1.0588834066734715e-02 0.0000000000000000e+00  0.0000000000000000e+00 0.0000000000000000e+00 0.0000000000000000e+00  -1.1744359451223683e-02 1.7286885671705221e-04 0.0000000000000000e+00  0.0000000000000000e+00 0.0000000000000000e+00 0.0000000000000000e+00  0.0000000000000000e+00 0.0000000000000000e+00 0.0000000000000000e+00  1.1844594579589782e-02 2.4945051442797212e-05 0.0000000000000000e+00  -1.1769354849089734e-02 -1.4138866383458078e-05 0.0000000000000000e+00  0.0000000000000000e+00 0.0000000000000000e+00 0.0000000000000000e+00  0.0000000000000000e+00 0.0000000000000000e+00 0.0000000000000000e+00  -5.6986330214631531e-03 -8.8158888443831442e-03 0.0000000000000000e+00  -5.1428882843672995e-06 -1.2056312526411943e-02 0.0000000000000000e+00  -1.2137531519359639e-02 4.5200933266367345e-05 0.0000000000000000e+00  1.2219015008871258e-02 1.8371281486930639e-06 0.0000000000000000e+00  9.4295366662444172e-06 1.2295007905475552e-02 0.0000000000000000e+00  -1.0596731218407729e-02 -5.4671460747026949e-05 0.0000000000000000e+00  8.2091210703168126e-05 1.0412965720470034e-02 0.0000000000000000e+00  -1.5122868749963392e-06 1.0461879799099608e-02 0.0000000000000000e+00  3.3643566365105466e-05 -1.0398147742390142e-02 0.0000000000000000e+00  1.1972299270885688e-05 -1.2134875719741844e-02 0.0000000000000000e+00  0.0000000000000000e+00 0.0000000000000000e+00 0.0000000000000000e+00  3.3009236777953464e-06 -1.2089832110103609e-02 0.0000000000000000e+00  -6.2189615127077585e-03 1.2929732352000443e-03 0.0000000000000000e+00  -9.4487701373217516e-03 6.3411841279954239e-03 0.0000000000000000e+00  1.0929990225163843e-02 5.0957546087177560e-03 0.0000000000000000e+00  -9.2562786093133495e-04 -1.1523719830421201e-02 0.0000000000000000e+00  3.3648041035429540e-03 1.0417801148772060e-04 0.0000000000000000e+00  -1.0768629916735849e-02 -1.1986464222587750e-04 0.0000000000000000e+00  2.8251506867591187e-06 -1.0801559311747292e-02 0.0000000000000000e+00  -1.2679082092070603e-04 1.0767251820687834e-02 0.0000000000000000e+00  1.0641551718414119e-02 1.0991571335413991e-05 0.0000000000000000e+00  1.0565776934220849e-02 -7.3744272874704019e-06 0.0000000000000000e+00  1.0320966855240737e-04 1.2093620731972668e-02 0.0000000000000000e+00  1.0543754693293168e-02 2.0804095180957928e-04 0.0000000000000000e+00  1.8208037855915603e-05 -1.2278316575975102e-02 0.0000000000000000e+00  1.1183453833149009e-05 1.2287777489839976e-02 0.0000000000000000e+00  1.2209130035574783e-02 2.0447065708606673e-05 0.0000000000000000e+00  -1.2281925826347049e-02 2.4156348793096172e-05 0.0000000000000000e+00  -1.0271646544243635e-02 7.8828215475167993e-05 0.0000000000000000e+00  -1.0054810454379212e-04 -1.2088297971687706e-02 0.0000000000000000e+00  -1.0666606077791989e-04 -1.0183172310639982e-02 0.0000000000000000e+00  -1.2060718506521875e-02 2.5730646400392562e-04 0.0000000000000000e+00  1.2299335177314042e-02 9.6412679287035913e-06 0.0000000000000000e+00  2.2275054412611928e-06 1.2247244187272726e-02 0.0000000000000000e+00  1.2076059243370962e-02 2.0997872789956304e-04 0.0000000000000000e+00  -1.3827291051333780e-03 7.5018801994096518e-03 0.0000000000000000e+00  0.0000000000000000e+00 0.0000000000000000e+00 0.0000000000000000e+00  0.0000000000000000e+00 0.0000000000000000e+00 0.0000000000000000e+00  0.0000000000000000e+00 0.0000000000000000e+00 0.0000000000000000e+00  -4.8710009687716611e-06 1.2304568516687394e-02 0.0000000000000000e+00  1.2945621578949789e-05 1.2235113258174300e-02 0.0000000000000000e+00  1.3256677972308407e-05 -1.2254751611433549e-02 0.0000000000000000e+00  -1.2152250593071946e-02 -8.5184789859669721e-06 0.0000000000000000e+00  0.0000000000000000e+00 0.0000000000000000e+00 0.0000000000000000e+00  -2.9070756262805957e-06 -1.2274498463044032e-02 0.0000000000000000e+00  0.0000000000000000e+00 0.0000000000000000e+00 0.0000000000000000e+00  -1.0315844007943588e-02 -1.6253670528600507e-05 0.0000000000000000e+00  -2.2242406704097380e-05 -1.2229343479730018e-02 0.0000000000000000e+00  -1.0337543400408306e-03 1.1234800001256090e-02 0.0000000000000000e+00  -1.8078018571943530e-03 1.2031970446837072e-02 0.0000000000000000e+00  -1.2269707992710120e-02 1.8706056877622472e-06 0