<?xml version="1.0"?>
<VTKFile type="UnstructuredGrid"  version="0.1"  >
<UnstructuredGrid>
<Piece  NumberOfPoints="778" NumberOfCells="1401">
<Points>
<DataArray  type="Float64"  NumberOfComponents="3"  format="ascii">1 -1 0  6 -1 0  6 1 0  1 1 0  1 6 0  -1 6 0  -1 1 0  -6 1 0  -6 -1 0  -1 -1 0  -1 -6 0  1 -6 0  1 3.5 0  -1 3.5 0  -1 -3.5 0  1 -3.5 0  3.5 -1 0  3.5 1 0  -3.5 -1 0  -3.5 1 0  -1 -2.25 0  1 -2.25 0  2.25 -1 0  2.25 1 0  -1 2.25 0  1 2.25 0  -1 4.75 0  1 4.75 0  -4.75 -1 0  -4.75 1 0  -2.25 1 0  -2.25 -1 0  1 -4.75 0  -1 -4.75 0  4.75 1 0  4.75 -1 0  0 0 0  -2.875 0 0  -1.625 0 0  -4.125 0 0  -6 0 0  0 2.875 0  2.875 0 0  0 6 0  1.625 0 0  0 -2.875 0  0 -1.625 0  0 1.625 0  0 4.125 0  0 -6 0  0 -4.125 0  4.125 0 0  6 0 0  -0.109375 5.0625 0  -5.0625 -0.109375 0  -0.109375 -5.0625 0  5.0625 0.109375 0  0.8125 -0.1875 0  -0.1875 -0.8125 0  -0.8125 0.1875 0  -0.1875 0.8125 0  1 5.375 0  -5.375 1 0  1 -5.375 0  5.375 -1 0  0.53515625 0.46484375 0  -5.375 -1 0  -1 5.375 0  -1 -5.375 0  -0.5 -6 0  5.375 1 0  6 0.5 0  3.5 0.3046875 0  3.43125 -0.34765625 0  2.875 -1 0  4.125 1 0  0.3046875 3.5 0  -0.34765625 3.56875 0  -1 4.125 0  1 4.125 0  -0.3046875 2.25 0  0.34765625 2.18125 0  1 1.625 0  -1 -1.625 0  -0.3046875 -3.5 0  0.34765625 -3.56875 0  1 -4.125 0  0.3046875 -2.25 0  -0.34765625 -2.18125 0  -1 -4.125 0  -1 -2.875 0  1 -2.875 0  1 -1.625 0  1.625 -1 0  1.625 1 0  2.25 0.3046875 0  2.18125 -0.34765625 0  4.125 -1 0  2.875 1 0  1 2.875 0  -1 1.625 0  -1 2.875 0  -4.125 -1 0  -2.25 0.3046875 0  -2.31875 -0.34765625 0  -2.875 -1 0  -1.625 1 0  -4.125 1 0  -3.5 0.3046875 0  -3.56875 -0.34765625 0  -1.625 -1 0  -2.875 1 0  0.380626321794301 1.06853329530276 0  -1.110819327731092 -0.3739495798319328 0  0.3739495798319328 -1.110819327731092 0  1.151210293219304 0.3991939332620648 0  -0.5 -4.4375 0  0.5 -4.4375 0  5.481553398058253 -0.3712833737864077 0  0.5 4.4375 0  0.5 6 0  -0.522503783594538 -0.3265648647465863 0  -1.3125 0.5 0  -0.5 6 0  0.3265648647465863 -0.522503783594538 0  4.4375 0.5 0  4.4375 -0.5 0  0.5 -6 0  -6 -0.5 0  -5.481553398058253 0.3712833737864077 0  -4.55 -0.4296875 0  -4.4375 0.5 0  -0.5 4.4375 0  0.4792930825242718 5.026881067961165 0  0.4792930825242718 -5.026881067961165 0  -0.5 1.3125 0  1.3125 -0.5 0  -0.5 -1.3125 0  0.25 5.518539952962044 0  0.2125133872612723 -5.500076563152851 0  4.969341874373811 -0.5152550785163683 0  -4.969341874373811 0.5152550785163683 0  3.927189744345589 -0.4712876597840069 0  -5.554036458333333 -0.25 0  5.554036458333333 0.25 0  -0.4690710616438356 -5.462756849315069 0  -0.4690710616438356 5.462756849315069 0  -6 0.5 0  -1.59556436210848 -0.5 0  -3.058421751829955 -0.5 0  -0.5 2.731982421875 0  0.5 2.691578248170045 0  2.691578248170045 -0.5 0  1.641211254104555 0.5 0  0.5 -1.768017578125 0  0.5 -3.058421751829955 0  0.5 1.699267578125 0  3.018017578125 0.5 0  -0.5 -3.018017578125 0  -2.731982421875 0.5 0  6 -0.5 0  -4.050017120925308 -0.5006099332648871 0  -3.940668202764977 0.5371363767281105 0  3.940668202764977 0.5371363767281105 0  0.4517449476047904 3.958458083832335 0  -0.4517449476047904 -3.958458083832335 0  -1.809331797235023 0.5371363767281105 0  -0.4517449476047904 1.791541916167665 0  -0.0546875 4.59375 0  -5.006445312499999 -0.58984375 0  4.605643203883496 -0.04725424757281554 0  4.90625 0.5546875 0  -0.5546875 4.90625 0  0.04725424757281554 -4.605643203883496 0  -0.586116118210531 -4.995821561900013 0  -4.603710222472543 0.04846236095466061 0  -3.1875 0.65234375 0  0.6163907621110913 3.147502300973589 0  2.5625 0.65234375 0  0.6163907621110913 -2.602497699026411 0  -0.637456713551384 3.189259902731882 0  -0.637456713551384 -2.560740097268118 0  -0.34765625 0.34765625 0  -0.639453125 0.708203125 0  0.089630126953125 0.437286376953125 0  -0.4238281249999999 -1.746875 0  1.746875 -0.4238281249999999 0  -0.4238281249999999 4.003125 0  0.4238281249999999 -4.003125 0  -2.5625 -1 0  3.1875 -1 0  -0.09375 -1.21875 0  1.21875 -0.09375 0  0.4020305405760241 -0.1120343241705621 0  -0.6280191027904287 -0.7577505545748082 0  0.90625 -0.59375 0  -1.205500904741459 0.03633725387965409 0  -0.02129048848213058 1.202028574265107 0  -0.1120343241705621 -0.4020305405760241 0  1 1.3125 0  -2.003587563743074 -0.6442361556699288 0  0.6640077663259718 -1.395873598614549 0  5.6875 -1 0  0.6308138580859101 -5.592151086468728 0  -5.6875 -1 0  0.6568032075915271 5.612942566073222 0  5.616530031741774 0.6612875396772174 0  -5.6875 1 0  1.9375 1 0  -1.3125 -1 0  0.1524679547155687 -3.232579139388032 0  0.1524679547155687 2.517420860611968 0  -3.232579139388032 -0.1524679547155687 0  -1.932320553757026 -0.252759244693845 0  2.517420860611968 -0.1524679547155687 0  -0.04776045819569434 -2.464949198504599 0  -0.2420369079104247 3.187693796852321 0  3.751304711039982 -0.1203080877045035 0  -5.397601941771943 -0.609026059866711 0  1.3125 1 0  1.9375 -1 0  -0.6946315101963667 -2.018229242739021 0  -0.6946315101963667 3.731770757260979 0  1 -3.8125 0  2.014364435550335 0.6166648446293641 0  -1 5.6875 0  -1 -5.6875 0  -2.653476149871182 -0.5942957192996303 0  3.096523850128818 -0.5942957192996303 0  1 1.9375 0  -3.8125 -1 0  0.586975531244212 -0.7975955463807081 0  -0.2946248980953088 -4.743710873809568 0  2.625453376770019 0.2814788818359375 0  -3.124546623229981 0.2814788818359375 0  -0.1204856417894853 5.631800603217465 0  5.253862011026742 0.6581468962876398 0  -0.65234375 2.108701557941197 0  0.65234375 3.641298442058803 0  -0.65234375 -3.641298442058803 0  -0.25 -5.744880569758637 0  -4.4375 -1 0  -0.3166212631734941 -2.713595940002554 0  0.6591479224207506 0.1324305912687024 0  0.8660781906552419 0.6468634238104103 0  -0.9887189158197679 0.6452930723873549 0  0.3149351927204296 -1.460971774996065 0  -0.3572852727880474 -0.009629022788047503 0  2.09375 -0.6866724363772454 0  0.6866724363772454 -3.65625 0  0.6866724363772454 2.09375 0  -3.65625 -0.6866724363772454 0  -3.5371337890625 0.65234375 0  -0.1389584113023952 1.944025352615082 0  -2.151744288472698 0.65234375 0  -0.1389584113023951 -3.805974647384918 0  0.1389584113023951 3.805974647384918 0  -2.578772109813904 0.1857224367977529 0  3.171227890186096 0.1857224367977529 0  3.360315647536819 0.65234375 0  0.1857224367977528 -1.921227890186096 0  0.65234375 -2.110315647536819 0  1.894016528727564 0.2415406141485869 0  -3.738232421875 0 0  0.2516875549238616 3.139069895099618 0  -1.913724396854074 0.2011142179916434 0  0.1669456568161915 0.7843410671359501 0  -2.5625 1 0  -1 -3.1875 0  -1 2.5625 0  0.1736601499778735 4.857955663330752 0  -0.1893536587212888 2.577300639071919 0  -0.1893536587212888 -3.172699360928081 0  3.852271904453858 0.206603749322895 0  -3.8125 1 0  -0.1250095034621793 -5.421707592768541 0  3.8125 -1 0  3.617304217264373 -0.6578427703661498 0  0.2630176195580202 -2.636558318495885 0  0.2674330357770522 1.399517071108871 0  0.631726413079416 1.339254523727593 0  4.700571879807737 0.2813704945051134 0  0.7143844363649634 -3.319538455208831 0  2.430461544791169 -0.7143844363649634 0  0.7143844363649634 2.430461544791169 0  -3.319538455208831 -0.7143844363649634 0  5.687045771608623 -0.6520598572553891 0  -5.687045771608623 0.6520598572553891 0  -1.15625 -0.7048248829733235 0  3.438284572973296 -0.01860298867862281 0  -0.03021088078697859 3.451572359862192 0  2.216682837011589 -0.02159585961918548 0  -2.191580885932936 -0.03126387444658879 0  0.1857410764408683 1.895679405349457 0  3.103473238297955 -0.253270943723272 0  -2.646526761702045 -0.253270943723272 0  -2.333137350671861 -0.6791984914172315 0  -1 5.0625 0  -0.6971235589909319 5.213002544375844 0  0.01618705363819947 2.225929180591695 0  0.01618705363819947 -3.524070819408305 0  0.5690054882403073 0.7951310720450595 0  -0.5764940424412852 -3.329579265180942 0  -0.5764940424412852 2.420420734819058 0  3.8125 1 0  -5.372163860234628 0.04365139563106807 0  5.164108319316826 -0.225040894204947 0  -5.361952437854323 0.6744012088984681 0  -5.0625 1 0  5.286835586913878 -0.6616705837083201 0  -5.692815197359722 0.1186699900166531 0  5.663425996156958 -0.07763197815533956 0  -0.9219866027132193 -0.1143045829323572 0  -1.394333629759332 -0.2233077430199216 0  0.09322478991596644 -0.9616596638655462 0  5.0625 -1 0  -0.14412109375 -1.92169189453125 0  -4.28125 -0.7212148987671345 0  0.2649796277366407 0.1735162902120744 0  -4.907855692236596 0.1868230509619793 0  -1.9375 1 0  1 5.0625 0  0.6915124486819284 -5.272938212550202 0  0.683483242673902 5.284948082526911 0  2.5625 -1 0  -1 -3.8125 0  -1 1.9375 0  5.0625 1 0  -1 -1.9375 0  1 5.6875 0  1 -5.6875 0  -1.9375 -1 0  -1 -2.5625 0  -1 3.1875 0  1 -3.1875 0  1 -2.5625 0  1 2.5625 0  1 3.1875 0  -5.0625 -1 0  -1 -1.3125 0  1.3125 -1 0  -1 1.3125 0  -1 3.8125 0  -1 4.4375 0  -4.4375 1 0  4.4375 -1 0  4.4375 1 0  -1.3125 1 0  1 4.4375 0  1 -4.4375 0  -1 -5.0625 0  -1 -4.4375 0  -3.1875 1 0  2.5625 1 0  1 -1.9375 0  1 -1.3125 0  5.6875 1 0  1 3.8125 0  3.1875 1 0  -3.1875 -1 0  1 -5.0625 0  1.35138038998199 0.6675097549271188 0  -0.465625 0.986328125 0  1.435958105992309 0.2563920171199723 0  1.915914614192913 -0.145782394639918 0  -0.8764440609469509 -0.5746869313612541 0  5.355194559946098 0.01566259380337612 0  -5.69333042954964 -0.5242868300459975 0  1.78125 -0.7320750794491524 0  0.7320750794491525 -3.96875 0  -0.3959075548864684 5.166422468926435 0  -4.770522389068053 -0.2123670725088856 0  -4.714160156249999 -0.69234375 0  -4.273484403713342 -0.278160994327167 0  0.9642590244517505 0.08196089404241463 0  0.3500261717645397 -4.727285205957206 0  0.6740868006020392 -4.765147848348443 0  0.6797550207247084 -1.089747806381148 0  -5.186479934354063 0.3046329157552757 0  -5.263288238215326 -0.3369092276308425 0  -2.433484016245305 0.5442571297016638 0  0.1707808983307866 -3.82363304980935 0  -0.1554012991031027 3.867535742674252 0  4.855508096805579 -0.2283975605264581 0  3.644517238097614 0.5646428152488787 0  0.05699603874439441 -0.6452791208413911 0  -0.3550018917972689 -0.5695324323732931 0  0.6
[...]
<PointData  Vectors="u"> 
<DataArray  type="Float64"  Name="u"  NumberOfComponents="3" format="ascii">0.0000000000000000e+00 0.0000000000000000e+00 0.0000000000000000e+00  0.0000000000000000e+00 0.0000000000000000e+00 0.0000000000000000e+00  0.0000000000000000e+00 0.0000000000000000e+00 0.0000000000000000e+00  0.0000000000000000e+00 0.0000000000000000e+00 0.0000000000000000e+00  0.0000000000000000e+00 0.0000000000000000e+00 0.0000000000000000e+00  0.0000000000000000e+00 0.0000000000000000e+00 0.0000000000000000e+00  0.0000000000000000e+00 0.0000000000000000e+00 0.0000000000000000e+00  0.0000000000000000e+00 0.0000000000000000e+00 0.0000000000000000e+00  0.0000000000000000e+00 0.0000000000000000e+00 0.0000000000000000e+00  0.0000000000000000e+00 0.0000000000000000e+00 0.0000000000000000e+00  0.0000000000000000e+00 0.0000000000000000e+00 0.0000000000000000e+00  0.0000000000000000e+00 0.0000000000000000e+00 0.0000000000000000e+00  0.0000000000000000e+00 0.0000000000000000e+00 0.0000000000000000e+00  0.0000000000000000e+00 0.0000000000000000e+00 0.0000000000000000e+00  0.0000000000000000e+00 0.0000000000000000e+00 0.0000000000000000e+00  0.0000000000000000e+00 0.0000000000000000e+00 0.0000000000000000e+00  0.0000000000000000e+00 0.0000000000000000e+00 0.0000000000000000e+00  0.0000000000000000e+00 0.0000000000000000e+00 0.0000000000000000e+00  0.0000000000000000e+00 0.0000000000000000e+00 0.0000000000000000e+00  0.0000000000000000e+00 0.0000000000000000e+00 0.0000000000000000e+00  0.0000000000000000e+00 0.0000000000000000e+00 0.0000000000000000e+00  0.0000000000000000e+00 0.0000000000000000e+00 0.0000000000000000e+00  0.0000000000000000e+00 0.0000000000000000e+00 0.0000000000000000e+00  0.0000000000000000e+00 0.0000000000000000e+00 0.0000000000000000e+00  0.0000000000000000e+00 0.0000000000000000e+00 0.0000000000000000e+00  0.0000000000000000e+00 0.0000000000000000e+00 0.0000000000000000e+00  0.0000000000000000e+00 0.0000000000000000e+00 0.0000000000000000e+00  0.0000000000000000e+00 0.0000000000000000e+00 0.0000000000000000e+00  0.0000000000000000e+00 0.0000000000000000e+00 0.0000000000000000e+00  0.0000000000000000e+00 0.0000000000000000e+00 0.0000000000000000e+00  0.0000000000000000e+00 0.0000000000000000e+00 0.0000000000000000e+00  0.0000000000000000e+00 0.0000000000000000e+00 0.0000000000000000e+00  0.0000000000000000e+00 0.0000000000000000e+00 0.0000000000000000e+00  0.0000000000000000e+00 0.0000000000000000e+00 0.0000000000000000e+00  0.0000000000000000e+00 0.0000000000000000e+00 0.0000000000000000e+00  0.0000000000000000e+00 0.0000000000000000e+00 0.0000000000000000e+00  -1.9603692858767877e-04 1.0304565874346750e-04 0.0000000000000000e+00  5.7254792658514832e-02 -1.0980475689422028e-05 0.0000000000000000e+00  5.4752747944448191e-02 5.5899560716791792e-05 0.0000000000000000e+00  5.7324537530827425e-02 4.4321980711994873e-06 0.0000000000000000e+00  5.7393383833299304e-02 3.7730550129600538e-05 0.0000000000000000e+00  1.3495092791486433e-05 5.7250179055872742e-02 0.0000000000000000e+00  -5.7167111944926234e-02 4.4940498305491041e-05 0.0000000000000000e+00  4.1156096421234234e-05 5.7172799197361651e-02 0.0000000000000000e+00  -5.4855163108260316e-02 1.2047995273881863e-04 0.0000000000000000e+00  5.8562401970550003e-06 -5.7208547860830780e-02 0.0000000000000000e+00  -3.7899194785012017e-06 -5.4717858778277957e-02 0.0000000000000000e+00  4.3400536720164228e-05 5.4652279958007477e-02 0.0000000000000000e+00  3.5249039681444228e-05 5.7201485927587108e-02 0.0000000000000000e+00  4.4086345650522640e-05 -5.7186860294234622e-02 0.0000000000000000e+00  7.2105394684403962e-05 -5.7269658871667302e-02 0.0000000000000000e+00  -5.7332368130509556e-02 -2.2930501252977902e-05 0.0000000000000000e+00  -5.7312850803307724e-02 -5.0101292392118262e-05 0.0000000000000000e+00  -7.1178956165743697e-05 5.7332255017451511e-02 0.0000000000000000e+00  5.7283087952195375e-02 -7.9572823431952577e-05 0.0000000000000000e+00  -8.6864025013226977e-05 -5.7112287746509394e-02 0.0000000000000000e+00  -5.7221625125481144e-02 -7.0354529069260188e-05 0.0000000000000000e+00  -3.7189893382266859e-02 -7.6479271814780701e-03 0.0000000000000000e+00  7.4884755365990695e-03 -3.6740216583765251e-02 0.0000000000000000e+00  3.6619944884227547e-02 7.5430201280769571e-03 0.0000000000000000e+00  7.6779022956590974e-03 3.6798519217200509e-02 0.0000000000000000e+00  0.0000000000000000e+00 0.0000000000000000e+00 0.0000000000000000e+00  0.0000000000000000e+00 0.0000000000000000e+00 0.0000000000000000e+00  0.0000000000000000e+00 0.0000000000000000e+00 0.0000000000000000e+00  0.0000000000000000e+00 0.0000000000000000e+00 0.0000000000000000e+00  -2.5636240438955488e-02 2.1682752770193294e-02 0.0000000000000000e+00  0.0000000000000000e+00 0.0000000000000000e+00 0.0000000000000000e+00  0.0000000000000000e+00 0.0000000000000000e+00 0.0000000000000000e+00  0.0000000000000000e+00 0.0000000000000000e+00 0.0000000000000000e+00  5.4146998773932923e-05 -5.4625010597216105e-02 0.0000000000000000e+00  0.0000000000000000e+00 0.0000000000000000e+00 0.0000000000000000e+00  -5.7022962330853612e-02 -2.5858882569030530e-06 0.0000000000000000e+00  -5.7467056721914364e-02 6.0541704237310281e-05 0.0000000000000000e+00  -5.7341723814099917e-02 2.7210210587732625e-05 0.0000000000000000e+00  0.0000000000000000e+00 0.0000000000000000e+00 0.0000000000000000e+00  0.0000000000000000e+00 0.0000000000000000e+00 0.0000000000000000e+00  3.6267268205387068e-05 5.7230466932949121e-02 0.0000000000000000e+00  2.6263426668341909e-08 5.7353138100802711e-02 0.0000000000000000e+00  0.0000000000000000e+00 0.0000000000000000e+00 0.0000000000000000e+00  0.0000000000000000e+00 0.0000000000000000e+00 0.0000000000000000e+00  2.6725905390944434e-04 5.7033677887195385e-02 0.0000000000000000e+00  -3.8962441556803315e-04 5.7070895851470925e-02 0.0000000000000000e+00  0.0000000000000000e+00 0.0000000000000000e+00 0.0000000000000000e+00  0.0000000000000000e+00 0.0000000000000000e+00 0.0000000000000000e+00  3.5879854616545947e-05 -5.7246155707921915e-02 0.0000000000000000e+00  1.7490850385661804e-05 -5.7267790866973679e-02 0.0000000000000000e+00  0.0000000000000000e+00 0.0000000000000000e+00 0.0000000000000000e+00  -2.3722177064191828e-04 -5.7010415375085242e-02 0.0000000000000000e+00  4.8284817708696843e-04 -5.7145194399701657e-02 0.0000000000000000e+00  0.0000000000000000e+00 0.0000000000000000e+00 0.0000000000000000e+00  0.0000000000000000e+00 0.0000000000000000e+00 0.0000000000000000e+00  0.0000000000000000e+00 0.0000000000000000e+00 0.0000000000000000e+00  0.0000000000000000e+00 0.0000000000000000e+00 0.0000000000000000e+00  0.0000000000000000e+00 0.0000000000000000e+00 0.0000000000000000e+00  0.0000000000000000e+00 0.0000000000000000e+00 0.0000000000000000e+00  -5.7046633667874477e-02 3.4780423192049659e-04 0.0000000000000000e+00  -5.7021666589664337e-02 -3.6070430182799488e-04 0.0000000000000000e+00  0.0000000000000000e+00 0.0000000000000000e+00 0.0000000000000000e+00  0.0000000000000000e+00 0.0000000000000000e+00 0.0000000000000000e+00  0.0000000000000000e+00 0.0000000000000000e+00 0.0000000000000000e+00  0.0000000000000000e+00 0.0000000000000000e+00 0.0000000000000000e+00  0.0000000000000000e+00 0.0000000000000000e+00 0.0000000000000000e+00  0.0000000000000000e+00 0.0000000000000000e+00 0.0000000000000000e+00  5.7206912419471338e-02 3.5686103651692825e-04 0.0000000000000000e+00  5.7284067881843953e-02 -3.4201325245417812e-04 0.0000000000000000e+00  0.0000000000000000e+00 0.0000000000000000e+00 0.0000000000000000e+00  0.0000000000000000e+00 0.0000000000000000e+00 0.0000000000000000e+00  0.0000000000000000e+00 0.0000000000000000e+00 0.0000000000000000e+00  5.7170918581360169e-02 9.7315629535171076e-05 0.0000000000000000e+00  5.7309897151290576e-02 2.5021690747825681e-05 0.0000000000000000e+00  0.0000000000000000e+00 0.0000000000000000e+00 0.0000000000000000e+00  0.0000000000000000e+00 0.0000000000000000e+00 0.0000000000000000e+00  -1.0627926320644894e-02 4.8571102371852033e-02 0.0000000000000000e+00  4.9899898347219487e-02 -1.0334734426665219e-02 0.0000000000000000e+00  -9.8930288390854920e-03 -5.0362660583832874e-02 0.0000000000000000e+00  -5.0999990212677690e-02 9.3373705579455051e-03 0.0000000000000000e+00  3.4930052109733798e-05 -5.4608175589590108e-02 0.0000000000000000e+00  6.0646450736113836e-07 -5.7309690671578532e-02 0.0000000000000000e+00  -5.7392502896635243e-02 -8.2698855268853813e-05 0.0000000000000000e+00  4.5474505473209098e-06 5.7198118009907151e-02 0.0000000000000000e+00  4.0552763466071756e-05 5.7211189684061428e-02 0.0000000000000000e+00  2.4316581468716757e-02 -1.5165268939679111e-02 0.0000000000000000e+00  5.5455538726569699e-02 7.7060561332207029e-03 0.0000000000000000e+00  1.2744806591933646e-05 5.4625507524536994e-02 0.0000000000000000e+00  -1.4680836962672684e-02 -2.4321698282316031e-02 0.0000000000000000e+00  -5.7241812852844826e-02 -5.6542721284488898e-05 0.0000000000000000e+00  -5.7334716563040719e-02 4.9400260917110876e-06 0.0000000000000000e+00  2.1395413555302275e-05 -5.7221895652787402e-02 0.0000000000000000e+00  5.7424470478770390e-02 -3.8115465523345621e-06 0.0000000000000000e+00  5.7293437017746196e-02 5.5839275925008209e-05 0.0000000000000000e+00  5.7433582209216461e-02 6.9338767033128936e-06 0.0000000000000000e+00  5.4433876629597845e-02 -1.5225958548454919e-05 0.0000000000000000e+00  1.1144568143662667e-05 5.7072230445871161e-02 0.0000000000000000e+00  -3.1183743950890241e-05 5.7349396831510871e-02 0.0000000000000000e+00  -3.3187300550760873e-05 -5.7291223113513617e-02 0.0000000000000000e+00  8.1289687623195515e-03 5.6825834192469955e-02 0.0000000000000000e+00  -5.5991813095512592e-02 -7.6071120021653149e-03 0.0000000000000000e+00  7.7498665194643216e-03 -5.5550962594321206e-02 0.0000000000000000e+00  3.5334764650434859e-05 5.7229372042781612e-02 0.0000000000000000e+00  -2.6588071959335155e-05 -5.7295492332428255e-02 0.0000000000000000e+00  -5.7386117679846929e-02 -5.6980274619286472e-05 0.0000000000000000e+00  5.5100103548384516e-02 -3.5641678870934402e-06 0.0000000000000000e+00  -5.7273703497125829e-02 -3.1718502850425663e-05 0.0000000000000000e+00  5.7371208543888851e-02 -9.0103953585348543e-05 0.0000000000000000e+00  -5.7280652750610041e-02 -1.4726612375348712e-04 0.0000000000000000e+00  6.2205516134122729e-06 -5.7136042804975924e-02 0.0000000000000000e+00  2.2618761688829711e-05 5.7205350779930927e-02 0.0000000000000000e+00  5.5643935503588184e-02 1.2038596427847584e-04 0.0000000000000000e+00  5.7044676882111026e-02 -2.9423237434851972e-03 0.0000000000000000e+00  5.7343281462800010e-02 1.8820965583681929e-05 0.0000000000000000e+00  -1.1082405753045519e-05 5.7274246205954518e-02 0.0000000000000000e+00  -9.3246802215946200e-05 5.7182104440693451e-02 0.0000000000000000e+00  -5.7262201806134554e-02 -3.0668692871395199e-05 0.0000000000000000e+00  -5.7153910866211556e-02 2.8774388780913964e-03 0.0000000000000000e+00  -1.6601456861261273e-03 -5.6917625904287228e-02 0.0000000000000000e+00  -2.0204696117795323e-05 -5.7256415060306064e-02 0.0000000000000000e+00  -1.9541790700878911e-03 5.7266576553094868e-02 0.0000000000000000e+00  -5.7111879959270397e-02 9.5460217257989415e-05 0.0000000000000000e+00  1.1637846466858025e-04 -5.7189752855066563e-02 0.0000000000000000e+00  5.7352848071064909e-02 -4.2968291299071297e-07 0.0000000000000000e+00  -5.5542708036194176e-02 -6.3712654507509025e-05 0.0000000000000000e+00  5.7301680698707357e-02 -4.3023482440113583e-06 0.0000000000000000e+00  5.5190924335246548e-02 -1.9318367222967349e-04 0.0000000000000000e+00  -5.5166966031998908e-02 -4.1116757602920913e-04 0.0000000000000000e+00  2.4248271230529070e-05 5.7249105053631753e-02 0.0000000000000000e+00  8.7101629342807921e-05 -5.7273300788989082e-02 0.0000000000000000e+00  5.4888644959506662e-02 1.5134976713605346e-03 0.0000000000000000e+00  1.5854220032548499e-03 5.6640650293304035e-02 0.0000000000000000e+00  5.9314953591893561e-05 5.7243738701408808e-02 0.0000000000000000e+00  5.5706113668129560e-02 1.1096605970228757e-04 0.0000000000000000e+00  -5.7314488683488582e-02 -5.5102086529174110e-06 0.0000000000000000e+00  -5.2312228794481185e-02 8.0834497092407024e-05 0.0000000000000000e+00  7.3367012087921014e-05 5.1306433732658925e-02 0.0000000000000000e+00  -1.4097547131254564e-05 -5.7338324594096449e-02 0.0000000000000000e+00  -2.2941538399120392e-04 -5.1938510476908645e-02 0.0000000000000000e+00  5.7345898110794435e-02 -4.2974089700089261e-05 0.0000000000000000e+00  5.2092412358717997e-02 1.3565931267273012e-04 0.0000000000000000e+00  4.2179671719116850e-05 5.2847102023322413e-02 0.0000000000000000e+00  -5.6537653683204368e-02 2.9586558011447244e-04 0.0000000000000000e+00  -2.1497599044414847e-04 -5.2753959250597518e-02 0.0000000000000000e+00  2.5571154799030260e-04 5.3414555965160121e-02 0.0000000000000000e+00  -1.1030466809197805e-04 -5.3660021295841624e-02 0.0000000000000000e+00  1.6043794315120589e-02 1.5846550090517192e-02 0.0000000000000000e+00  3.0715435309214365e-02 3.5319890447949767e-02 0.0000000000000000e+00  -4.1442500031400129e-03 2.0112790818014255e-02 0.0000000000000000e+00  1.9182009874033445e-03 -5.6673619714293723e-02 0.0000000000000000e+00  -5.6492063612075233e-02 -1.7605582356701630e-03 0.0000000000000000e+00  -2.3273868235471853e-05 5.7170665032876121e-02 0.0000000000000000e+00  -5.9946436995936646e-06 -5.7270613883743757e-02 0.0000000000000000e+00  0.0000000000000000e+00 0.0000000000000000e+00 0.0000000000000000e+00  0.0000000000000000e+00 0.0000000000000000e+00 0.0000000000000000e+00  2.4940893782310707e-03 -4.9233050059108045e-02 0.0000000000000000e+00  -4.9155907060335402e-02 -1.7555929662047901e-03 0.0000000000000000e+00  -1.8716593115726182e-02 -4.9197560859396954e-03 0.0000000000000000e+00  3.0396217094595127e-02 -3.9905522831537130e-02 0.0000000000000000e+00  -4.9684084577540991e-02 -2.3314474734597974e-02 0.0000000000000000e+00  4.8922804383400055e-02 1.1815729373572065e-03 0.0000000000000000e+00  4.9469076642644748e-04 4.8563120792051856e-02 0.0000000000000000e+00  5.0436161346029632e-03 -1.8537501868092197e-02 0.0000000000000000e+00  0.0000000000000000e+00 0.0000000000000000e+00 0.0000000000000000e+00  5.3681242970892114e-02 -8.1720680449556067e-04 0.0000000000000000e+00  -4.3415798082821659e-03 -5.7344407060066042e-02 0.0000000000000000e+00  0.0000000000000000e+00 0.0000000000000000e+00 0.0000000000000000e+00  2.2288528364583382e-04 -5.3658566691428176e-02 0.0000000000000000e+00  0.0000000000000000e+00 0.0000000000000000e+00 0.0000000000000000e+00  3.0755907178302863e-04 5.4249902772868307e-02 0.0000000000000000e+00  -5.4401769958730674e-02 -4.6739568783083163e-04 0.0000000000000000e+00  0.0000000000000000e+00 0.0000000000000000e+00 0.0000000000000000e+00  0.0000000000000000e+00 0.0000000000000000e+00 0.0000000000000000e+00  0.0000000000000000e+00 0.0000000000000000e+00 0.0000000000000000e+00  3.7432725751254737e-05 -5.7228551773561183e-02 0.0000000000000000e+00  -7.7898224324627171e-05 5.7144826343179356e-02 0.0000000000000000e+00  5.7274812120992231e-02 1.5625754744206095e-05 0.0000000000000000e+00  5.6655134951661391e-02 -7.8016200175522416e-04 0.0000000000000000e+00  -5.7086419510746507e-02 -4.2264909937691446e-05 0.0000000000000000e+00  3.8071798349966954e-05 -5.7162942212311579e-02 0.0000000000000000e+00  8.2135290362257891e-05 5.7326084488536891e-02 0.0000000000000000e+00  -5.7356151691135102e-02 8.3835289871783602e-06 0.0000000000000000e+00  5.2955905505685359e-02 4.0657854849983109e-06 0.0000000000000000e+00  0.0000000000000000e+00 0.0000000000000000e+00 0.0000000000000000e+00  0.0000000000000000e+00 0.0000000000000000e+00 0.0000000000000000e+00  1.0103694781122643e-03 -5.4671875522333345e-02 0.0000000000000000e+00  -3.0182014378501905e-04 5.4847703381935828e-02 0.0000000000000000e+00  0.0000000000000000e+00 0.0000000000000000e+00 0.0000000000000000e+00  -5.6030561209102048e-02 6.1981357936528923e-04 0.0000000000000000e+00  0.0000000000000000e+00 0.0000000000000000e+00 0.0000000000000000e+00  0.0000000000000000e+00 0.0000000000000000e+00 0.0000000000000000e+00  5.5858934586874583e-02 2.1479106685574735e-04 0.0000000000000000e+00  -5.5475444518125923e-02 -5.1741090819293266e-05 0.0000000000000000e+00  0.0000000000000000e+00 0.0000000000000000e+00 0.0000000000000000e+00  0.0000000000000000e+00 0.0000000000000000e+00 0.0000000000000000e+00  -2.6859364357346711e-02 -4.2318728308916732e-02 0.0000000000000000e+00  -9.5421335472827462e-05 -5.7395101296865363e-02 0.0000000000000000e+00  -5.7136549345914930e-02 1.1552876764049038e-04 0.0000000000000000e+00  5.7263044654281232e-02 -1.6522061311300447e-05 0.0000000000000000e+00  5.2052756071611063e-05 5.7261472692755500e-02 0.0000000000000000e+00  -5.4883256180810587e-02 -2.3249264614642973e-04 0.0000000000000000e+00  2.8273466743087265e-04 5.4594334479822683e-02 0.0000000000000000e+00  -1.3922969950626101e-04 5.3634732934996106e-02 0.0000000000000000e+00  1.8475963563336761e-04 -5.4202109971931693e-02 0.0000000000000000e+00  6.8711009118560507e-05 -5.7220464550631844e-02 0.0000000000000000e+00  0.0000000000000000e+00 0.0000000000000000e+00 0.0000000000000000e+00  7.2800533870215396e-06 -5.7246796813293484e-02 0.0000000000000000e+00  -3.0121026328391292e-02 5.8530865977551635e-03 0.0000000000000000e+00  -4.5000267969162407e-02 2.9967369513897394e-02 0.0000000000000000e+00  5.2392051947238720e-02 2.3982684051143035e-02 0.0000000000000000e+00  -3.6992670113169517e-03 -5.4219900082361203e-02 0.0000000000000000e+00  1.6315432685993701e-02 -1.4768370436089257e-04 0.0000000000000000e+00  -5.4865787219850783e-02 -4.5823948082683732e-04 0.0000000000000000e+00  1.8354014381799121e-05 -5.4654445409854799e-02 0.0000000000000000e+00  -4.7936423701403820e-04 5.4836188287193964e-02 0.0000000000000000e+00  5.4407397658318542e-02 1.0484043281143822e-04 0.0000000000000000e+00  5.5049821593457587e-02 9.5857073884229315e-05 0.0000000000000000e+00  4.3274988269147586e-04 5.6536275705806500e-02 0.0000000000000000e+00  5.5605509066910065e-02 7.6292379357109175e-04 0.0000000000000000e+00  5.6864517690559179e-05 -5.7246197303129014e-02 0.0000000000000000e+00  4.3489231142906047e-05 5.7260314426091370e-02 0.0000000000000000e+00  5.7182170110281490e-02 2.7061835223580809e-05 0.0000000000000000e+00  -5.7188866364093427e-02 1.0979287421834303e-04 0.0000000000000000e+00  -5.4122625390666590e-02 4.9468655315752688e-04 0.0000000000000000e+00  -4.3401044891004561e-04 -5.6431745809683513e-02 0.0000000000000000e+00  -3.1802674004918638e-04 -5.3632791869761685e-02 0.0000000000000000e+00  -5.6489681836503866e-02 9.4843209214320141e-04 0.0000000000000000e+00  5.7309816386502253e-02 3.5499106730875230e-05 0.0000000000000000e+00  2.4094583414056259e-05 5.7313774826100686e-02 0.0000000000000000e+00  5.6475184863185167e-02 7.9598879038556317e-04 0.0000000000000000e+00  -6.8470756821135733e-03 3.5726966755257467e-02 0.0000000000000000e+00  0.0000000000000000e+00 0.0000000000000000e+00 0.0000000000000000e+00  0.0000000000000000e+00 0.0000000000000000e+00 0.0000000000000000e+00  0.0000000000000000e+00 0.0000000000000000e+00 0.0000000000000000e+00  -1.3128537723358587e-05 5.7271766977740411e-02 0.0000000000000000e+00  4.7356439445830790e-05 5.7108674056858481e-02 0.0000000000000000e+00  5.5458340944353028e-05 -5.7137618003591656e-02 0.0000000000000000e+00  -5.7267035581825249e-02 2.8734082073548112e-05 0.0000000000000000e+00  0.0000000000000000e+00 0.0000000000000000e+00 0.0000000000000000e+00  -2.9885048814607321e-05 -5.7217376572526249e-02 0.0000000000000000e+00  0.0000000000000000e+00 0.0000000000000000e+00 0.0000000000000000e+00  -5.3412123260368198e-02 -1.4122689512898490e-05 0.0000000000000000e+00  -7.7612943565669285e-05 -5.7220397542214030e-02 0.0000000000000000e+00  -4.0966676163347125e-03 5.3190879772306750e-02 0.0000000000000000e+00  -5.8860556620739012e-03 5.5992348322630371e-02 0.0000000000000000e+00  -5.7417751118553399e-02 7.9563045537329133e-06