<?xml version="1.0"?>
<VTKFile type="UnstructuredGrid"  version="0.1"  >
<UnstructuredGrid>
<Piece  NumberOfPoints="778" NumberOfCells="1401">
<Points>
<DataArray  type="Float64"  NumberOfComponents="3"  format="ascii">1 -1 0  6 -1 0  6 1 0  1 1 0  1 6 0  -1 6 0  -1 1 0  -6 1 0  -6 -1 0  -1 -1 0  -1 -6 0  1 -6 0  1 3.5 0  -1 3.5 0  -1 -3.5 0  1 -3.5 0  3.5 -1 0  3.5 1 0  -3.5 -1 0  -3.5 1 0  -1 -2.25 0  1 -2.25 0  2.25 -1 0  2.25 1 0  -1 2.25 0  1 2.25 0  -1 4.75 0  1 4.75 0  -4.75 -1 0  -4.75 1 0  -2.25 1 0  -2.25 -1 0  1 -4.75 0  -1 -4.75 0  4.75 1 0  4.75 -1 0  0 0 0  -2.875 0 0  -1.625 0 0  -4.125 0 0  -6 0 0  0 2.875 0  2.875 0 0  0 6 0  1.625 0 0  0 -2.875 0  0 -1.625 0  0 1.625 0  0 4.125 0  0 -6 0  0 -4.125 0  4.125 0 0  6 0 0  -0.109375 5.0625 0  -5.0625 -0.109375 0  -0.109375 -5.0625 0  5.0625 0.109375 0  0.8125 -0.1875 0  -0.1875 -0.8125 0  -0.8125 0.1875 0  -0.1875 0.8125 0  1 5.375 0  -5.375 1 0  1 -5.375 0  5.375 -1 0  0.53515625 0.46484375 0  -5.375 -1 0  -1 5.375 0  -1 -5.375 0  -0.5 -6 0  5.375 1 0  6 0.5 0  3.5 0.3046875 0  3.43125 -0.34765625 0  2.875 -1 0  4.125 1 0  0.3046875 3.5 0  -0.34765625 3.56875 0  -1 4.125 0  1 4.125 0  -0.3046875 2.25 0  0.34765625 2.18125 0  1 1.625 0  -1 -1.625 0  -0.3046875 -3.5 0  0.34765625 -3.56875 0  1 -4.125 0  0.3046875 -2.25 0  -0.34765625 -2.18125 0  -1 -4.125 0  -1 -2.875 0  1 -2.875 0  1 -1.625 0  1.625 -1 0  1.625 1 0  2.25 0.3046875 0  2.18125 -0.34765625 0  4.125 -1 0  2.875 1 0  1 2.875 0  -1 1.625 0  -1 2.875 0  -4.125 -1 0  -2.25 0.3046875 0  -2.31875 -0.34765625 0  -2.875 -1 0  -1.625 1 0  -4.125 1 0  -3.5 0.3046875 0  -3.56875 -0.34765625 0  -1.625 -1 0  -2.875 1 0  0.380626321794301 1.06853329530276 0  -1.110819327731092 -0.3739495798319328 0  0.3739495798319328 -1.110819327731092 0  1.151210293219304 0.3991939332620648 0  -0.5 -4.4375 0  0.5 -4.4375 0  5.481553398058253 -0.3712833737864077 0  0.5 4.4375 0  0.5 6 0  -0.522503783594538 -0.3265648647465863 0  -1.3125 0.5 0  -0.5 6 0  0.3265648647465863 -0.522503783594538 0  4.4375 0.5 0  4.4375 -0.5 0  0.5 -6 0  -6 -0.5 0  -5.481553398058253 0.3712833737864077 0  -4.55 -0.4296875 0  -4.4375 0.5 0  -0.5 4.4375 0  0.4792930825242718 5.026881067961165 0  0.4792930825242718 -5.026881067961165 0  -0.5 1.3125 0  1.3125 -0.5 0  -0.5 -1.3125 0  0.25 5.518539952962044 0  0.2125133872612723 -5.500076563152851 0  4.969341874373811 -0.5152550785163683 0  -4.969341874373811 0.5152550785163683 0  3.927189744345589 -0.4712876597840069 0  -5.554036458333333 -0.25 0  5.554036458333333 0.25 0  -0.4690710616438356 -5.462756849315069 0  -0.4690710616438356 5.462756849315069 0  -6 0.5 0  -1.59556436210848 -0.5 0  -3.058421751829955 -0.5 0  -0.5 2.731982421875 0  0.5 2.691578248170045 0  2.691578248170045 -0.5 0  1.641211254104555 0.5 0  0.5 -1.768017578125 0  0.5 -3.058421751829955 0  0.5 1.699267578125 0  3.018017578125 0.5 0  -0.5 -3.018017578125 0  -2.731982421875 0.5 0  6 -0.5 0  -4.050017120925308 -0.5006099332648871 0  -3.940668202764977 0.5371363767281105 0  3.940668202764977 0.5371363767281105 0  0.4517449476047904 3.958458083832335 0  -0.4517449476047904 -3.958458083832335 0  -1.809331797235023 0.5371363767281105 0  -0.4517449476047904 1.791541916167665 0  -0.0546875 4.59375 0  -5.006445312499999 -0.58984375 0  4.605643203883496 -0.04725424757281554 0  4.90625 0.5546875 0  -0.5546875 4.90625 0  0.04725424757281554 -4.605643203883496 0  -0.586116118210531 -4.995821561900013 0  -4.603710222472543 0.04846236095466061 0  -3.1875 0.65234375 0  0.6163907621110913 3.147502300973589 0  2.5625 0.65234375 0  0.6163907621110913 -2.602497699026411 0  -0.637456713551384 3.189259902731882 0  -0.637456713551384 -2.560740097268118 0  -0.34765625 0.34765625 0  -0.639453125 0.708203125 0  0.089630126953125 0.437286376953125 0  -0.4238281249999999 -1.746875 0  1.746875 -0.4238281249999999 0  -0.4238281249999999 4.003125 0  0.4238281249999999 -4.003125 0  -2.5625 -1 0  3.1875 -1 0  -0.09375 -1.21875 0  1.21875 -0.09375 0  0.4020305405760241 -0.1120343241705621 0  -0.6280191027904287 -0.7577505545748082 0  0.90625 -0.59375 0  -1.205500904741459 0.03633725387965409 0  -0.02129048848213058 1.202028574265107 0  -0.1120343241705621 -0.4020305405760241 0  1 1.3125 0  -2.003587563743074 -0.6442361556699288 0  0.6640077663259718 -1.395873598614549 0  5.6875 -1 0  0.6308138580859101 -5.592151086468728 0  -5.6875 -1 0  0.6568032075915271 5.612942566073222 0  5.616530031741774 0.6612875396772174 0  -5.6875 1 0  1.9375 1 0  -1.3125 -1 0  0.1524679547155687 -3.232579139388032 0  0.1524679547155687 2.517420860611968 0  -3.232579139388032 -0.1524679547155687 0  -1.932320553757026 -0.252759244693845 0  2.517420860611968 -0.1524679547155687 0  -0.04776045819569434 -2.464949198504599 0  -0.2420369079104247 3.187693796852321 0  3.751304711039982 -0.1203080877045035 0  -5.397601941771943 -0.609026059866711 0  1.3125 1 0  1.9375 -1 0  -0.6946315101963667 -2.018229242739021 0  -0.6946315101963667 3.731770757260979 0  1 -3.8125 0  2.014364435550335 0.6166648446293641 0  -1 5.6875 0  -1 -5.6875 0  -2.653476149871182 -0.5942957192996303 0  3.096523850128818 -0.5942957192996303 0  1 1.9375 0  -3.8125 -1 0  0.586975531244212 -0.7975955463807081 0  -0.2946248980953088 -4.743710873809568 0  2.625453376770019 0.2814788818359375 0  -3.124546623229981 0.2814788818359375 0  -0.1204856417894853 5.631800603217465 0  5.253862011026742 0.6581468962876398 0  -0.65234375 2.108701557941197 0  0.65234375 3.641298442058803 0  -0.65234375 -3.641298442058803 0  -0.25 -5.744880569758637 0  -4.4375 -1 0  -0.3166212631734941 -2.713595940002554 0  0.6591479224207506 0.1324305912687024 0  0.8660781906552419 0.6468634238104103 0  -0.9887189158197679 0.6452930723873549 0  0.3149351927204296 -1.460971774996065 0  -0.3572852727880474 -0.009629022788047503 0  2.09375 -0.6866724363772454 0  0.6866724363772454 -3.65625 0  0.6866724363772454 2.09375 0  -3.65625 -0.6866724363772454 0  -3.5371337890625 0.65234375 0  -0.1389584113023952 1.944025352615082 0  -2.151744288472698 0.65234375 0  -0.1389584113023951 -3.805974647384918 0  0.1389584113023951 3.805974647384918 0  -2.578772109813904 0.1857224367977529 0  3.171227890186096 0.1857224367977529 0  3.360315647536819 0.65234375 0  0.1857224367977528 -1.921227890186096 0  0.65234375 -2.110315647536819 0  1.894016528727564 0.2415406141485869 0  -3.738232421875 0 0  0.2516875549238616 3.139069895099618 0  -1.913724396854074 0.2011142179916434 0  0.1669456568161915 0.7843410671359501 0  -2.5625 1 0  -1 -3.1875 0  -1 2.5625 0  0.1736601499778735 4.857955663330752 0  -0.1893536587212888 2.577300639071919 0  -0.1893536587212888 -3.172699360928081 0  3.852271904453858 0.206603749322895 0  -3.8125 1 0  -0.1250095034621793 -5.421707592768541 0  3.8125 -1 0  3.617304217264373 -0.6578427703661498 0  0.2630176195580202 -2.636558318495885 0  0.2674330357770522 1.399517071108871 0  0.631726413079416 1.339254523727593 0  4.700571879807737 0.2813704945051134 0  0.7143844363649634 -3.319538455208831 0  2.430461544791169 -0.7143844363649634 0  0.7143844363649634 2.430461544791169 0  -3.319538455208831 -0.7143844363649634 0  5.687045771608623 -0.6520598572553891 0  -5.687045771608623 0.6520598572553891 0  -1.15625 -0.7048248829733235 0  3.438284572973296 -0.01860298867862281 0  -0.03021088078697859 3.451572359862192 0  2.216682837011589 -0.02159585961918548 0  -2.191580885932936 -0.03126387444658879 0  0.1857410764408683 1.895679405349457 0  3.103473238297955 -0.253270943723272 0  -2.646526761702045 -0.253270943723272 0  -2.333137350671861 -0.6791984914172315 0  -1 5.0625 0  -0.6971235589909319 5.213002544375844 0  0.01618705363819947 2.225929180591695 0  0.01618705363819947 -3.524070819408305 0  0.5690054882403073 0.7951310720450595 0  -0.5764940424412852 -3.329579265180942 0  -0.5764940424412852 2.420420734819058 0  3.8125 1 0  -5.372163860234628 0.04365139563106807 0  5.164108319316826 -0.225040894204947 0  -5.361952437854323 0.6744012088984681 0  -5.0625 1 0  5.286835586913878 -0.6616705837083201 0  -5.692815197359722 0.1186699900166531 0  5.663425996156958 -0.07763197815533956 0  -0.9219866027132193 -0.1143045829323572 0  -1.394333629759332 -0.2233077430199216 0  0.09322478991596644 -0.9616596638655462 0  5.0625 -1 0  -0.14412109375 -1.92169189453125 0  -4.28125 -0.7212148987671345 0  0.2649796277366407 0.1735162902120744 0  -4.907855692236596 0.1868230509619793 0  -1.9375 1 0  1 5.0625 0  0.6915124486819284 -5.272938212550202 0  0.683483242673902 5.284948082526911 0  2.5625 -1 0  -1 -3.8125 0  -1 1.9375 0  5.0625 1 0  -1 -1.9375 0  1 5.6875 0  1 -5.6875 0  -1.9375 -1 0  -1 -2.5625 0  -1 3.1875 0  1 -3.1875 0  1 -2.5625 0  1 2.5625 0  1 3.1875 0  -5.0625 -1 0  -1 -1.3125 0  1.3125 -1 0  -1 1.3125 0  -1 3.8125 0  -1 4.4375 0  -4.4375 1 0  4.4375 -1 0  4.4375 1 0  -1.3125 1 0  1 4.4375 0  1 -4.4375 0  -1 -5.0625 0  -1 -4.4375 0  -3.1875 1 0  2.5625 1 0  1 -1.9375 0  1 -1.3125 0  5.6875 1 0  1 3.8125 0  3.1875 1 0  -3.1875 -1 0  1 -5.0625 0  1.35138038998199 0.6675097549271188 0  -0.465625 0.986328125 0  1.435958105992309 0.2563920171199723 0  1.915914614192913 -0.145782394639918 0  -0.8764440609469509 -0.5746869313612541 0  5.355194559946098 0.01566259380337612 0  -5.69333042954964 -0.5242868300459975 0  1.78125 -0.7320750794491524 0  0.7320750794491525 -3.96875 0  -0.3959075548864684 5.166422468926435 0  -4.770522389068053 -0.2123670725088856 0  -4.714160156249999 -0.69234375 0  -4.273484403713342 -0.278160994327167 0  0.9642590244517505 0.08196089404241463 0  0.3500261717645397 -4.727285205957206 0  0.6740868006020392 -4.765147848348443 0  0.6797550207247084 -1.089747806381148 0  -5.186479934354063 0.3046329157552757 0  -5.263288238215326 -0.3369092276308425 0  -2.433484016245305 0.5442571297016638 0  0.1707808983307866 -3.82363304980935 0  -0.1554012991031027 3.867535742674252 0  4.855508096805579 -0.2283975605264581 0  3.644517238097614 0.5646428152488787 0  0.05699603874439441 -0.6452791208413911 0  -0.3550018917972689 -0.5695324323732931 0  0.6
[...]
<PointData  Vectors="u"> 
<DataArray  type="Float64"  Name="u"  NumberOfComponents="3" format="ascii">0.0000000000000000e+00 0.0000000000000000e+00 0.0000000000000000e+00  0.0000000000000000e+00 0.0000000000000000e+00 0.0000000000000000e+00  0.0000000000000000e+00 0.0000000000000000e+00 0.0000000000000000e+00  0.0000000000000000e+00 0.0000000000000000e+00 0.0000000000000000e+00  0.0000000000000000e+00 0.0000000000000000e+00 0.0000000000000000e+00  0.0000000000000000e+00 0.0000000000000000e+00 0.0000000000000000e+00  0.0000000000000000e+00 0.0000000000000000e+00 0.0000000000000000e+00  0.0000000000000000e+00 0.0000000000000000e+00 0.0000000000000000e+00  0.0000000000000000e+00 0.0000000000000000e+00 0.0000000000000000e+00  0.0000000000000000e+00 0.0000000000000000e+00 0.0000000000000000e+00  0.0000000000000000e+00 0.0000000000000000e+00 0.0000000000000000e+00  0.0000000000000000e+00 0.0000000000000000e+00 0.0000000000000000e+00  0.0000000000000000e+00 0.0000000000000000e+00 0.0000000000000000e+00  0.0000000000000000e+00 0.0000000000000000e+00 0.0000000000000000e+00  0.0000000000000000e+00 0.0000000000000000e+00 0.0000000000000000e+00  0.0000000000000000e+00 0.0000000000000000e+00 0.0000000000000000e+00  0.0000000000000000e+00 0.0000000000000000e+00 0.0000000000000000e+00  0.0000000000000000e+00 0.0000000000000000e+00 0.0000000000000000e+00  0.0000000000000000e+00 0.0000000000000000e+00 0.0000000000000000e+00  0.0000000000000000e+00 0.0000000000000000e+00 0.0000000000000000e+00  0.0000000000000000e+00 0.0000000000000000e+00 0.0000000000000000e+00  0.0000000000000000e+00 0.0000000000000000e+00 0.0000000000000000e+00  0.0000000000000000e+00 0.0000000000000000e+00 0.0000000000000000e+00  0.0000000000000000e+00 0.0000000000000000e+00 0.0000000000000000e+00  0.0000000000000000e+00 0.0000000000000000e+00 0.0000000000000000e+00  0.0000000000000000e+00 0.0000000000000000e+00 0.0000000000000000e+00  0.0000000000000000e+00 0.0000000000000000e+00 0.0000000000000000e+00  0.0000000000000000e+00 0.0000000000000000e+00 0.0000000000000000e+00  0.0000000000000000e+00 0.0000000000000000e+00 0.0000000000000000e+00  0.0000000000000000e+00 0.0000000000000000e+00 0.0000000000000000e+00  0.0000000000000000e+00 0.0000000000000000e+00 0.0000000000000000e+00  0.0000000000000000e+00 0.0000000000000000e+00 0.0000000000000000e+00  0.0000000000000000e+00 0.0000000000000000e+00 0.0000000000000000e+00  0.0000000000000000e+00 0.0000000000000000e+00 0.0000000000000000e+00  0.0000000000000000e+00 0.0000000000000000e+00 0.0000000000000000e+00  0.0000000000000000e+00 0.0000000000000000e+00 0.0000000000000000e+00  -2.0065988472423799e-04 9.4799395240327241e-05 0.0000000000000000e+00  4.6947180521874292e-02 -1.1212201794933716e-05 0.0000000000000000e+00  4.4812148810219318e-02 6.6948173173087005e-05 0.0000000000000000e+00  4.7000099666715478e-02 3.1319759197757194e-06 0.0000000000000000e+00  4.7044766821356221e-02 3.4384815734180245e-05 0.0000000000000000e+00  1.1572557431183949e-05 4.6928156468010858e-02 0.0000000000000000e+00  -4.6860323220927862e-02 4.2449765078526689e-05 0.0000000000000000e+00  3.6692677795089870e-05 4.6877901416503429e-02 0.0000000000000000e+00  -4.4904601891106476e-02 1.1490606507373468e-04 0.0000000000000000e+00  7.6805949908666066e-06 -4.6901230338108252e-02 0.0000000000000000e+00  -2.1171873918571208e-05 -4.4707930435943857e-02 0.0000000000000000e+00  3.9407436145219425e-05 4.4656060430224451e-02 0.0000000000000000e+00  3.6092887370406450e-05 4.6896557778486780e-02 0.0000000000000000e+00  3.7922049870481497e-05 -4.6895261107881038e-02 0.0000000000000000e+00  6.2118976388337210e-05 -4.6956829371602525e-02 0.0000000000000000e+00  -4.7011123010306827e-02 -1.4978469650772489e-05 0.0000000000000000e+00  -4.6969021380081397e-02 -4.3481198263031866e-05 0.0000000000000000e+00  -5.7355314408663894e-05 4.7012512480963803e-02 0.0000000000000000e+00  4.6946751799222045e-02 -5.8325016409247972e-05 0.0000000000000000e+00  -7.3346681220056763e-05 -4.6743800202487688e-02 0.0000000000000000e+00  -4.6859736999649355e-02 -5.6453150207272486e-05 0.0000000000000000e+00  -3.0359042374699604e-02 -6.3273846471422011e-03 0.0000000000000000e+00  6.0757521371917669e-03 -2.9872002337412308e-02 0.0000000000000000e+00  2.9777988130411888e-02 6.2559779521935317e-03 0.0000000000000000e+00  6.3134855666641156e-03 2.9921333771613122e-02 0.0000000000000000e+00  0.0000000000000000e+00 0.0000000000000000e+00 0.0000000000000000e+00  0.0000000000000000e+00 0.0000000000000000e+00 0.0000000000000000e+00  0.0000000000000000e+00 0.0000000000000000e+00 0.0000000000000000e+00  0.0000000000000000e+00 0.0000000000000000e+00 0.0000000000000000e+00  -2.0929138593107827e-02 1.7611645553295866e-02 0.0000000000000000e+00  0.0000000000000000e+00 0.0000000000000000e+00 0.0000000000000000e+00  0.0000000000000000e+00 0.0000000000000000e+00 0.0000000000000000e+00  0.0000000000000000e+00 0.0000000000000000e+00 0.0000000000000000e+00  6.1645496370747683e-05 -4.4747025901105637e-02 0.0000000000000000e+00  0.0000000000000000e+00 0.0000000000000000e+00 0.0000000000000000e+00  -4.6785374648328749e-02 -3.2657033709595279e-07 0.0000000000000000e+00  -4.6964040529429353e-02 5.9587060692745037e-05 0.0000000000000000e+00  -4.6850474890896658e-02 1.0610691268864140e-05 0.0000000000000000e+00  0.0000000000000000e+00 0.0000000000000000e+00 0.0000000000000000e+00  0.0000000000000000e+00 0.0000000000000000e+00 0.0000000000000000e+00  2.5179244028023077e-05 4.6874033955943424e-02 0.0000000000000000e+00  -6.7298706822680689e-06 4.6956545346907103e-02 0.0000000000000000e+00  0.0000000000000000e+00 0.0000000000000000e+00 0.0000000000000000e+00  0.0000000000000000e+00 0.0000000000000000e+00 0.0000000000000000e+00  2.2742855754413858e-04 4.6627202869091493e-02 0.0000000000000000e+00  -3.4774760714470764e-04 4.6729704442169298e-02 0.0000000000000000e+00  0.0000000000000000e+00 0.0000000000000000e+00 0.0000000000000000e+00  0.0000000000000000e+00 0.0000000000000000e+00 0.0000000000000000e+00  4.7380084212485987e-05 -4.6834358516517509e-02 0.0000000000000000e+00  1.5482076413709218e-05 -4.6913613937928068e-02 0.0000000000000000e+00  0.0000000000000000e+00 0.0000000000000000e+00 0.0000000000000000e+00  -2.0575258603953696e-04 -4.6723916887940573e-02 0.0000000000000000e+00  4.2837190516293694e-04 -4.6747024568084279e-02 0.0000000000000000e+00  0.0000000000000000e+00 0.0000000000000000e+00 0.0000000000000000e+00  0.0000000000000000e+00 0.0000000000000000e+00 0.0000000000000000e+00  0.0000000000000000e+00 0.0000000000000000e+00 0.0000000000000000e+00  0.0000000000000000e+00 0.0000000000000000e+00 0.0000000000000000e+00  0.0000000000000000e+00 0.0000000000000000e+00 0.0000000000000000e+00  0.0000000000000000e+00 0.0000000000000000e+00 0.0000000000000000e+00  -4.6595826294209178e-02 3.1421471274233488e-04 0.0000000000000000e+00  -4.6692700381193740e-02 -3.0862171135185109e-04 0.0000000000000000e+00  0.0000000000000000e+00 0.0000000000000000e+00 0.0000000000000000e+00  0.0000000000000000e+00 0.0000000000000000e+00 0.0000000000000000e+00  0.0000000000000000e+00 0.0000000000000000e+00 0.0000000000000000e+00  0.0000000000000000e+00 0.0000000000000000e+00 0.0000000000000000e+00  0.0000000000000000e+00 0.0000000000000000e+00 0.0000000000000000e+00  0.0000000000000000e+00 0.0000000000000000e+00 0.0000000000000000e+00  4.6705565009325822e-02 3.3484179225766567e-04 0.0000000000000000e+00  4.6795913679323849e-02 -2.8021563366929954e-04 0.0000000000000000e+00  0.0000000000000000e+00 0.0000000000000000e+00 0.0000000000000000e+00  0.0000000000000000e+00 0.0000000000000000e+00 0.0000000000000000e+00  0.0000000000000000e+00 0.0000000000000000e+00 0.0000000000000000e+00  4.6692576448590012e-02 7.9458664653131615e-05 0.0000000000000000e+00  4.6947905439279063e-02 2.2418252783829667e-05 0.0000000000000000e+00  0.0000000000000000e+00 0.0000000000000000e+00 0.0000000000000000e+00  0.0000000000000000e+00 0.0000000000000000e+00 0.0000000000000000e+00  -8.7251846353621990e-03 3.9461257895910623e-02 0.0000000000000000e+00  4.0644760989658156e-02 -8.5959286717122423e-03 0.0000000000000000e+00  -8.1355306025292055e-03 -4.1048971308080079e-02 0.0000000000000000e+00  -4.1527944315668801e-02 7.6923948883731120e-03 0.0000000000000000e+00  4.2357050870804932e-05 -4.4610289849925384e-02 0.0000000000000000e+00  -2.9568330432728563e-06 -4.6942191783804030e-02 0.0000000000000000e+00  -4.6914863871517533e-02 -6.1084169671750960e-05 0.0000000000000000e+00  2.5754652069909611e-06 4.6860604900934008e-02 0.0000000000000000e+00  4.8873846301356154e-05 4.6791837704191798e-02 0.0000000000000000e+00  1.9811751340424965e-02 -1.2391263739306465e-02 0.0000000000000000e+00  4.5179037797850291e-02 6.3776601975165676e-03 0.0000000000000000e+00  3.2027492590810816e-05 4.4729381429375333e-02 0.0000000000000000e+00  -1.1855141638153429e-02 -1.9741593475849167e-02 0.0000000000000000e+00  -4.6762287000624757e-02 -1.6478548837628503e-05 0.0000000000000000e+00  -4.6973348663076474e-02 8.9576290539303198e-06 0.0000000000000000e+00  3.6783683336637394e-05 -4.6768936716688365e-02 0.0000000000000000e+00  4.7043672475011629e-02 2.7792246344835120e-06 0.0000000000000000e+00  4.6829409291283049e-02 5.0834674099252954e-05 0.0000000000000000e+00  4.7012968351624884e-02 6.1549915243893282e-06 0.0000000000000000e+00  4.4422133591613705e-02 -1.4729849401014452e-05 0.0000000000000000e+00  2.6049707757094221e-05 4.6680362169630792e-02 0.0000000000000000e+00  -3.7696169533073655e-05 4.6968945537103700e-02 0.0000000000000000e+00  -2.6887920989196730e-05 -4.6885001652948212e-02 0.0000000000000000e+00  6.9364069380604835e-03 4.6487645364856299e-02 0.0000000000000000e+00  -4.5680921803762917e-02 -6.4674364304265165e-03 0.0000000000000000e+00  6.3606251649501646e-03 -4.5222610510744346e-02 0.0000000000000000e+00  3.1131546653152450e-05 4.6869055535544248e-02 0.0000000000000000e+00  -2.2658387020591755e-05 -4.6984931082716598e-02 0.0000000000000000e+00  -4.7022104198660764e-02 -6.2241537217771491e-05 0.0000000000000000e+00  4.4849665126293556e-02 8.2150760154363061e-06 0.0000000000000000e+00  -4.6855551851973619e-02 -2.5071515643246876e-05 0.0000000000000000e+00  4.6901260294204432e-02 -5.2859647376115893e-05 0.0000000000000000e+00  -4.6913177979649875e-02 -1.2715726894082591e-04 0.0000000000000000e+00  3.9665209552016861e-06 -4.6773015197218527e-02 0.0000000000000000e+00  1.0671495652926827e-05 4.6796116987352865e-02 0.0000000000000000e+00  4.5389083435780735e-02 1.1018824143890858e-04 0.0000000000000000e+00  4.6671632879307541e-02 -2.4886787865493016e-03 0.0000000000000000e+00  4.6942227079673562e-02 1.0827219412075094e-05 0.0000000000000000e+00  1.5200626537819685e-06 4.6889374985989801e-02 0.0000000000000000e+00  -8.9872142542541826e-05 4.6761235157179393e-02 0.0000000000000000e+00  -4.6877231702655162e-02 -2.3078942176290035e-05 0.0000000000000000e+00  -4.6743589161442993e-02 2.4763648638400806e-03 0.0000000000000000e+00  -1.5149887190725351e-03 -4.6583858552413968e-02 0.0000000000000000e+00  -3.6735604378766239e-06 -4.6803449092431490e-02 0.0000000000000000e+00  -1.7293070985521200e-03 4.6912336279884705e-02 0.0000000000000000e+00  -4.6813164147446670e-02 9.7351135741480241e-05 0.0000000000000000e+00  8.5884634558411818e-05 -4.6812219967618321e-02 0.0000000000000000e+00  4.6854516771097886e-02 3.9232904815247402e-06 0.0000000000000000e+00  -4.5216688445148499e-02 -3.8211973724990244e-05 0.0000000000000000e+00  4.6956377847606090e-02 -4.1755825344799744e-06 0.0000000000000000e+00  4.4973103629227081e-02 -1.6369545558348863e-04 0.0000000000000000e+00  -4.4971872131295727e-02 -3.4924281924321102e-04 0.0000000000000000e+00  3.2424861659683335e-05 4.6836252716733633e-02 0.0000000000000000e+00  7.3883043443499595e-05 -4.6825825970185940e-02 0.0000000000000000e+00  4.4753670106660703e-02 1.2988486333970995e-03 0.0000000000000000e+00  1.3939672114926566e-03 4.6293530804473820e-02 0.0000000000000000e+00  5.2767400975575576e-05 4.6927058756489497e-02 0.0000000000000000e+00  4.5380554492309627e-02 5.5157765883166011e-05 0.0000000000000000e+00  -4.6990863940346614e-02 -8.6982342811258040e-06 0.0000000000000000e+00  -4.1986163185117789e-02 7.8290261224493978e-05 0.0000000000000000e+00  5.7674895530032288e-05 4.0961052746371983e-02 0.0000000000000000e+00  -1.0622532826054761e-05 -4.7012058518826005e-02 0.0000000000000000e+00  -1.7582999172322238e-04 -4.1571717909367423e-02 0.0000000000000000e+00  4.7016456636383507e-02 -3.2060253815966835e-05 0.0000000000000000e+00  4.1496345304145227e-02 9.4097687029355204e-05 0.0000000000000000e+00  2.5625539514859667e-05 4.2347909639242544e-02 0.0000000000000000e+00  -4.6059117464728544e-02 2.6446386852161779e-04 0.0000000000000000e+00  -1.4172202146639683e-04 -4.2289140817820585e-02 0.0000000000000000e+00  1.9451730563716668e-04 4.2694279834417426e-02 0.0000000000000000e+00  -6.6759164999986983e-05 -4.2675743815356687e-02 0.0000000000000000e+00  1.3038908218808556e-02 1.2803860121126822e-02 0.0000000000000000e+00  2.4831175710400628e-02 2.8670462576045868e-02 0.0000000000000000e+00  -3.3374277039464606e-03 1.6352298739401479e-02 0.0000000000000000e+00  1.6741158292394027e-03 -4.6329188602183061e-02 0.0000000000000000e+00  -4.6200023980109521e-02 -1.5068476858884977e-03 0.0000000000000000e+00  -2.2444515804429832e-05 4.6754744301148808e-02 0.0000000000000000e+00  1.8752146921704552e-06 -4.6839675859917447e-02 0.0000000000000000e+00  0.0000000000000000e+00 0.0000000000000000e+00 0.0000000000000000e+00  0.0000000000000000e+00 0.0000000000000000e+00 0.0000000000000000e+00  2.0850975373380011e-03 -4.0108953758866681e-02 0.0000000000000000e+00  -4.0146295643416777e-02 -1.3864736642390089e-03 0.0000000000000000e+00  -1.5235649569578277e-02 -3.9652830681621721e-03 0.0000000000000000e+00  2.4945211149545891e-02 -3.2532095410960075e-02 0.0000000000000000e+00  -4.0462388172936771e-02 -1.9286079127039821e-02 0.0000000000000000e+00  4.0003842315834315e-02 1.0436962054194826e-03 0.0000000000000000e+00  3.6570156478589856e-04 3.9605068169188795e-02 0.0000000000000000e+00  4.0766180211121517e-03 -1.5084414707567868e-02 0.0000000000000000e+00  0.0000000000000000e+00 0.0000000000000000e+00 0.0000000000000000e+00  4.2975902582122388e-02 -6.7553867976738208e-04 0.0000000000000000e+00  -4.1264880280442546e-03 -4.6738148903674295e-02 0.0000000000000000e+00  0.0000000000000000e+00 0.0000000000000000e+00 0.0000000000000000e+00  1.8364203531066658e-04 -4.2870260392215531e-02 0.0000000000000000e+00  0.0000000000000000e+00 0.0000000000000000e+00 0.0000000000000000e+00  2.4632662761402645e-04 4.3506809154689623e-02 0.0000000000000000e+00  -4.3655941300827124e-02 -3.7356113922393643e-04 0.0000000000000000e+00  0.0000000000000000e+00 0.0000000000000000e+00 0.0000000000000000e+00  0.0000000000000000e+00 0.0000000000000000e+00 0.0000000000000000e+00  0.0000000000000000e+00 0.0000000000000000e+00 0.0000000000000000e+00  2.9758708368705892e-05 -4.6915284530991648e-02 0.0000000000000000e+00  -7.1949889701303907e-05 4.6833394788175248e-02 0.0000000000000000e+00  4.6961032463393892e-02 1.2780253912690230e-05 0.0000000000000000e+00  4.6359768776196505e-02 -6.7299320220714251e-04 0.0000000000000000e+00  -4.6794946243044061e-02 -3.7763480694638226e-05 0.0000000000000000e+00  3.1692162141422183e-05 -4.6848067508254362e-02 0.0000000000000000e+00  6.3482782166402515e-05 4.6894232565331186e-02 0.0000000000000000e+00  -4.7023201520375195e-02 7.9594653055994296e-06 0.0000000000000000e+00  4.2127322731338915e-02 2.4155718509492249e-06 0.0000000000000000e+00  0.0000000000000000e+00 0.0000000000000000e+00 0.0000000000000000e+00  0.0000000000000000e+00 0.0000000000000000e+00 0.0000000000000000e+00  8.8791525850139203e-04 -4.3809514723750012e-02 0.0000000000000000e+00  -2.3902827887505065e-04 4.3903527328620448e-02 0.0000000000000000e+00  0.0000000000000000e+00 0.0000000000000000e+00 0.0000000000000000e+00  -4.5640150527178444e-02 5.5367320788157813e-04 0.0000000000000000e+00  0.0000000000000000e+00 0.0000000000000000e+00 0.0000000000000000e+00  0.0000000000000000e+00 0.0000000000000000e+00 0.0000000000000000e+00  4.5599220675317922e-02 1.6190699245834168e-04 0.0000000000000000e+00  -4.5258944140370162e-02 -5.0730378763913134e-05 0.0000000000000000e+00  0.0000000000000000e+00 0.0000000000000000e+00 0.0000000000000000e+00  0.0000000000000000e+00 0.0000000000000000e+00 0.0000000000000000e+00  -2.1930605293499862e-02 -3.4460850078062294e-02 0.0000000000000000e+00  -6.4218017159131999e-05 -4.6863483276964484e-02 0.0000000000000000e+00  -4.6746333676184811e-02 1.1483851882415599e-04 0.0000000000000000e+00  4.6881024438018372e-02 -6.1344097395519596e-06 0.0000000000000000e+00  4.1354195035106125e-05 4.6949713020678331e-02 0.0000000000000000e+00  -4.3893955511076568e-02 -2.0282278204054622e-04 0.0000000000000000e+00  2.4265616363346732e-04 4.3562658366873327e-02 0.0000000000000000e+00  -7.9191024581884198e-05 4.2931474266181456e-02 0.0000000000000000e+00  1.4490829421598498e-04 -4.3255891119057248e-02 0.0000000000000000e+00  5.4386319835388884e-05 -4.6791536923914995e-02 0.0000000000000000e+00  0.0000000000000000e+00 0.0000000000000000e+00 0.0000000000000000e+00  5.3323458422038849e-06 -4.6778919283480873e-02 0.0000000000000000e+00  -2.4442774536528343e-02 4.8308795688831382e-03 0.0000000000000000e+00  -3.6616883584822693e-02 2.4544423145750907e-02 0.0000000000000000e+00  4.2546173324761412e-02 1.9718394148112914e-02 0.0000000000000000e+00  -3.1767144232323942e-03 -4.4272201528787268e-02 0.0000000000000000e+00  1.3231942603166000e-02 -8.0499606143842079e-06 0.0000000000000000e+00  -4.4048395714141007e-02 -3.9721296253732912e-04 0.0000000000000000e+00  1.5927135401230099e-05 -4.3922160790729990e-02 0.0000000000000000e+00  -4.1884019323695380e-04 4.4019176382848371e-02 0.0000000000000000e+00  4.3632005615953977e-02 7.6109020364995930e-05 0.0000000000000000e+00  4.3957559713206057e-02 5.4696917055451630e-05 0.0000000000000000e+00  3.6808916975215834e-04 4.6302634577604841e-02 0.0000000000000000e+00  4.4308124364059079e-02 6.8625573200798979e-04 0.0000000000000000e+00  5.3720673556114198e-05 -4.6933835860446728e-02 0.0000000000000000e+00  3.8827406561692176e-05 4.6945098235708881e-02 0.0000000000000000e+00  4.6809655917792140e-02 3.1759468528574680e-05 0.0000000000000000e+00  -4.6897382710435531e-02 8.8216507589863909e-05 0.0000000000000000e+00  -4.3091813971832954e-02 3.8063440651628301e-04 0.0000000000000000e+00  -3.6076095668429072e-04 -4.6219948630659077e-02 0.0000000000000000e+00  -2.9240606562995047e-04 -4.2727769540560553e-02 0.0000000000000000e+00  -4.6253548311702024e-02 8.3357637676306870e-04 0.0000000000000000e+00  4.6983872337535801e-02 3.3421177721089233e-05 0.0000000000000000e+00  1.8362682591934850e-05 4.6930243730571863e-02 0.0000000000000000e+00  4.6247778293093803e-02 6.9679775303253442e-04 0.0000000000000000e+00  -5.5615233409302117e-03 2.9091268020189829e-02 0.0000000000000000e+00  0.0000000000000000e+00 0.0000000000000000e+00 0.0000000000000000e+00  0.0000000000000000e+00 0.0000000000000000e+00 0.0000000000000000e+00  0.0000000000000000e+00 0.0000000000000000e+00 0.0000000000000000e+00  -1.2935822075191393e-05 4.6960717620535546e-02 0.0000000000000000e+00  3.9061040169679402e-05 4.6786022072055518e-02 0.0000000000000000e+00  5.0680385992196196e-05 -4.6831238496270272e-02 0.0000000000000000e+00  -4.6825901564151250e-02 7.6068160387015810e-06 0.0000000000000000e+00  0.0000000000000000e+00 0.0000000000000000e+00 0.0000000000000000e+00  -1.9955844974084677e-05 -4.6919096434797906e-02 0.0000000000000000e+00  0.0000000000000000e+00 0.0000000000000000e+00 0.0000000000000000e+00  -4.2659137632567679e-02 -2.8796517594911908e-05 0.0000000000000000e+00  -7.3575264119161993e-05 -4.6862509376505788e-02 0.0000000000000000e+00  -3.5107453717854995e-03 4.3353212483498584e-02 0.0000000000000000e+00  -5.4116163220803287e-03 4.5687463428230476e-02 0.0000000000000000e+00  -4.7032183742550644e-02 6.3137697938138314e-06 0.