<?xml version="1.0"?>
<VTKFile type="UnstructuredGrid"  version="0.1"  >
<UnstructuredGrid>
<Piece  NumberOfPoints="778" NumberOfCells="1401">
<Points>
<DataArray  type="Float64"  NumberOfComponents="3"  format="ascii">1 -1 0  6 -1 0  6 1 0  1 1 0  1 6 0  -1 6 0  -1 1 0  -6 1 0  -6 -1 0  -1 -1 0  -1 -6 0  1 -6 0  1 3.5 0  -1 3.5 0  -1 -3.5 0  1 -3.5 0  3.5 -1 0  3.5 1 0  -3.5 -1 0  -3.5 1 0  -1 -2.25 0  1 -2.25 0  2.25 -1 0  2.25 1 0  -1 2.25 0  1 2.25 0  -1 4.75 0  1 4.75 0  -4.75 -1 0  -4.75 1 0  -2.25 1 0  -2.25 -1 0  1 -4.75 0  -1 -4.75 0  4.75 1 0  4.75 -1 0  0 0 0  -2.875 0 0  -1.625 0 0  -4.125 0 0  -6 0 0  0 2.875 0  2.875 0 0  0 6 0  1.625 0 0  0 -2.875 0  0 -1.625 0  0 1.625 0  0 4.125 0  0 -6 0  0 -4.125 0  4.125 0 0  6 0 0  -0.109375 5.0625 0  -5.0625 -0.109375 0  -0.109375 -5.0625 0  5.0625 0.109375 0  0.8125 -0.1875 0  -0.1875 -0.8125 0  -0.8125 0.1875 0  -0.1875 0.8125 0  1 5.375 0  -5.375 1 0  1 -5.375 0  5.375 -1 0  0.53515625 0.46484375 0  -5.375 -1 0  -1 5.375 0  -1 -5.375 0  -0.5 -6 0  5.375 1 0  6 0.5 0  3.5 0.3046875 0  3.43125 -0.34765625 0  2.875 -1 0  4.125 1 0  0.3046875 3.5 0  -0.34765625 3.56875 0  -1 4.125 0  1 4.125 0  -0.3046875 2.25 0  0.34765625 2.18125 0  1 1.625 0  -1 -1.625 0  -0.3046875 -3.5 0  0.34765625 -3.56875 0  1 -4.125 0  0.3046875 -2.25 0  -0.34765625 -2.18125 0  -1 -4.125 0  -1 -2.875 0  1 -2.875 0  1 -1.625 0  1.625 -1 0  1.625 1 0  2.25 0.3046875 0  2.18125 -0.34765625 0  4.125 -1 0  2.875 1 0  1 2.875 0  -1 1.625 0  -1 2.875 0  -4.125 -1 0  -2.25 0.3046875 0  -2.31875 -0.34765625 0  -2.875 -1 0  -1.625 1 0  -4.125 1 0  -3.5 0.3046875 0  -3.56875 -0.34765625 0  -1.625 -1 0  -2.875 1 0  0.380626321794301 1.06853329530276 0  -1.110819327731092 -0.3739495798319328 0  0.3739495798319328 -1.110819327731092 0  1.151210293219304 0.3991939332620648 0  -0.5 -4.4375 0  0.5 -4.4375 0  5.481553398058253 -0.3712833737864077 0  0.5 4.4375 0  0.5 6 0  -0.522503783594538 -0.3265648647465863 0  -1.3125 0.5 0  -0.5 6 0  0.3265648647465863 -0.522503783594538 0  4.4375 0.5 0  4.4375 -0.5 0  0.5 -6 0  -6 -0.5 0  -5.481553398058253 0.3712833737864077 0  -4.55 -0.4296875 0  -4.4375 0.5 0  -0.5 4.4375 0  0.4792930825242718 5.026881067961165 0  0.4792930825242718 -5.026881067961165 0  -0.5 1.3125 0  1.3125 -0.5 0  -0.5 -1.3125 0  0.25 5.518539952962044 0  0.2125133872612723 -5.500076563152851 0  4.969341874373811 -0.5152550785163683 0  -4.969341874373811 0.5152550785163683 0  3.927189744345589 -0.4712876597840069 0  -5.554036458333333 -0.25 0  5.554036458333333 0.25 0  -0.4690710616438356 -5.462756849315069 0  -0.4690710616438356 5.462756849315069 0  -6 0.5 0  -1.59556436210848 -0.5 0  -3.058421751829955 -0.5 0  -0.5 2.731982421875 0  0.5 2.691578248170045 0  2.691578248170045 -0.5 0  1.641211254104555 0.5 0  0.5 -1.768017578125 0  0.5 -3.058421751829955 0  0.5 1.699267578125 0  3.018017578125 0.5 0  -0.5 -3.018017578125 0  -2.731982421875 0.5 0  6 -0.5 0  -4.050017120925308 -0.5006099332648871 0  -3.940668202764977 0.5371363767281105 0  3.940668202764977 0.5371363767281105 0  0.4517449476047904 3.958458083832335 0  -0.4517449476047904 -3.958458083832335 0  -1.809331797235023 0.5371363767281105 0  -0.4517449476047904 1.791541916167665 0  -0.0546875 4.59375 0  -5.006445312499999 -0.58984375 0  4.605643203883496 -0.04725424757281554 0  4.90625 0.5546875 0  -0.5546875 4.90625 0  0.04725424757281554 -4.605643203883496 0  -0.586116118210531 -4.995821561900013 0  -4.603710222472543 0.04846236095466061 0  -3.1875 0.65234375 0  0.6163907621110913 3.147502300973589 0  2.5625 0.65234375 0  0.6163907621110913 -2.602497699026411 0  -0.637456713551384 3.189259902731882 0  -0.637456713551384 -2.560740097268118 0  -0.34765625 0.34765625 0  -0.639453125 0.708203125 0  0.089630126953125 0.437286376953125 0  -0.4238281249999999 -1.746875 0  1.746875 -0.4238281249999999 0  -0.4238281249999999 4.003125 0  0.4238281249999999 -4.003125 0  -2.5625 -1 0  3.1875 -1 0  -0.09375 -1.21875 0  1.21875 -0.09375 0  0.4020305405760241 -0.1120343241705621 0  -0.6280191027904287 -0.7577505545748082 0  0.90625 -0.59375 0  -1.205500904741459 0.03633725387965409 0  -0.02129048848213058 1.202028574265107 0  -0.1120343241705621 -0.4020305405760241 0  1 1.3125 0  -2.003587563743074 -0.6442361556699288 0  0.6640077663259718 -1.395873598614549 0  5.6875 -1 0  0.6308138580859101 -5.592151086468728 0  -5.6875 -1 0  0.6568032075915271 5.612942566073222 0  5.616530031741774 0.6612875396772174 0  -5.6875 1 0  1.9375 1 0  -1.3125 -1 0  0.1524679547155687 -3.232579139388032 0  0.1524679547155687 2.517420860611968 0  -3.232579139388032 -0.1524679547155687 0  -1.932320553757026 -0.252759244693845 0  2.517420860611968 -0.1524679547155687 0  -0.04776045819569434 -2.464949198504599 0  -0.2420369079104247 3.187693796852321 0  3.751304711039982 -0.1203080877045035 0  -5.397601941771943 -0.609026059866711 0  1.3125 1 0  1.9375 -1 0  -0.6946315101963667 -2.018229242739021 0  -0.6946315101963667 3.731770757260979 0  1 -3.8125 0  2.014364435550335 0.6166648446293641 0  -1 5.6875 0  -1 -5.6875 0  -2.653476149871182 -0.5942957192996303 0  3.096523850128818 -0.5942957192996303 0  1 1.9375 0  -3.8125 -1 0  0.586975531244212 -0.7975955463807081 0  -0.2946248980953088 -4.743710873809568 0  2.625453376770019 0.2814788818359375 0  -3.124546623229981 0.2814788818359375 0  -0.1204856417894853 5.631800603217465 0  5.253862011026742 0.6581468962876398 0  -0.65234375 2.108701557941197 0  0.65234375 3.641298442058803 0  -0.65234375 -3.641298442058803 0  -0.25 -5.744880569758637 0  -4.4375 -1 0  -0.3166212631734941 -2.713595940002554 0  0.6591479224207506 0.1324305912687024 0  0.8660781906552419 0.6468634238104103 0  -0.9887189158197679 0.6452930723873549 0  0.3149351927204296 -1.460971774996065 0  -0.3572852727880474 -0.009629022788047503 0  2.09375 -0.6866724363772454 0  0.6866724363772454 -3.65625 0  0.6866724363772454 2.09375 0  -3.65625 -0.6866724363772454 0  -3.5371337890625 0.65234375 0  -0.1389584113023952 1.944025352615082 0  -2.151744288472698 0.65234375 0  -0.1389584113023951 -3.805974647384918 0  0.1389584113023951 3.805974647384918 0  -2.578772109813904 0.1857224367977529 0  3.171227890186096 0.1857224367977529 0  3.360315647536819 0.65234375 0  0.1857224367977528 -1.921227890186096 0  0.65234375 -2.110315647536819 0  1.894016528727564 0.2415406141485869 0  -3.738232421875 0 0  0.2516875549238616 3.139069895099618 0  -1.913724396854074 0.2011142179916434 0  0.1669456568161915 0.7843410671359501 0  -2.5625 1 0  -1 -3.1875 0  -1 2.5625 0  0.1736601499778735 4.857955663330752 0  -0.1893536587212888 2.577300639071919 0  -0.1893536587212888 -3.172699360928081 0  3.852271904453858 0.206603749322895 0  -3.8125 1 0  -0.1250095034621793 -5.421707592768541 0  3.8125 -1 0  3.617304217264373 -0.6578427703661498 0  0.2630176195580202 -2.636558318495885 0  0.2674330357770522 1.399517071108871 0  0.631726413079416 1.339254523727593 0  4.700571879807737 0.2813704945051134 0  0.7143844363649634 -3.319538455208831 0  2.430461544791169 -0.7143844363649634 0  0.7143844363649634 2.430461544791169 0  -3.319538455208831 -0.7143844363649634 0  5.687045771608623 -0.6520598572553891 0  -5.687045771608623 0.6520598572553891 0  -1.15625 -0.7048248829733235 0  3.438284572973296 -0.01860298867862281 0  -0.03021088078697859 3.451572359862192 0  2.216682837011589 -0.02159585961918548 0  -2.191580885932936 -0.03126387444658879 0  0.1857410764408683 1.895679405349457 0  3.103473238297955 -0.253270943723272 0  -2.646526761702045 -0.253270943723272 0  -2.333137350671861 -0.6791984914172315 0  -1 5.0625 0  -0.6971235589909319 5.213002544375844 0  0.01618705363819947 2.225929180591695 0  0.01618705363819947 -3.524070819408305 0  0.5690054882403073 0.7951310720450595 0  -0.5764940424412852 -3.329579265180942 0  -0.5764940424412852 2.420420734819058 0  3.8125 1 0  -5.372163860234628 0.04365139563106807 0  5.164108319316826 -0.225040894204947 0  -5.361952437854323 0.6744012088984681 0  -5.0625 1 0  5.286835586913878 -0.6616705837083201 0  -5.692815197359722 0.1186699900166531 0  5.663425996156958 -0.07763197815533956 0  -0.9219866027132193 -0.1143045829323572 0  -1.394333629759332 -0.2233077430199216 0  0.09322478991596644 -0.9616596638655462 0  5.0625 -1 0  -0.14412109375 -1.92169189453125 0  -4.28125 -0.7212148987671345 0  0.2649796277366407 0.1735162902120744 0  -4.907855692236596 0.1868230509619793 0  -1.9375 1 0  1 5.0625 0  0.6915124486819284 -5.272938212550202 0  0.683483242673902 5.284948082526911 0  2.5625 -1 0  -1 -3.8125 0  -1 1.9375 0  5.0625 1 0  -1 -1.9375 0  1 5.6875 0  1 -5.6875 0  -1.9375 -1 0  -1 -2.5625 0  -1 3.1875 0  1 -3.1875 0  1 -2.5625 0  1 2.5625 0  1 3.1875 0  -5.0625 -1 0  -1 -1.3125 0  1.3125 -1 0  -1 1.3125 0  -1 3.8125 0  -1 4.4375 0  -4.4375 1 0  4.4375 -1 0  4.4375 1 0  -1.3125 1 0  1 4.4375 0  1 -4.4375 0  -1 -5.0625 0  -1 -4.4375 0  -3.1875 1 0  2.5625 1 0  1 -1.9375 0  1 -1.3125 0  5.6875 1 0  1 3.8125 0  3.1875 1 0  -3.1875 -1 0  1 -5.0625 0  1.35138038998199 0.6675097549271188 0  -0.465625 0.986328125 0  1.435958105992309 0.2563920171199723 0  1.915914614192913 -0.145782394639918 0  -0.8764440609469509 -0.5746869313612541 0  5.355194559946098 0.01566259380337612 0  -5.69333042954964 -0.5242868300459975 0  1.78125 -0.7320750794491524 0  0.7320750794491525 -3.96875 0  -0.3959075548864684 5.166422468926435 0  -4.770522389068053 -0.2123670725088856 0  -4.714160156249999 -0.69234375 0  -4.273484403713342 -0.278160994327167 0  0.9642590244517505 0.08196089404241463 0  0.3500261717645397 -4.727285205957206 0  0.6740868006020392 -4.765147848348443 0  0.6797550207247084 -1.089747806381148 0  -5.186479934354063 0.3046329157552757 0  -5.263288238215326 -0.3369092276308425 0  -2.433484016245305 0.5442571297016638 0  0.1707808983307866 -3.82363304980935 0  -0.1554012991031027 3.867535742674252 0  4.855508096805579 -0.2283975605264581 0  3.644517238097614 0.5646428152488787 0  0.05699603874439441 -0.6452791208413911 0  -0.3550018917972689 -0.5695324323732931 0  0.6
[...]
<PointData  Vectors="u"> 
<DataArray  type="Float64"  Name="u"  NumberOfComponents="3" format="ascii">0.0000000000000000e+00 0.0000000000000000e+00 0.0000000000000000e+00  0.0000000000000000e+00 0.0000000000000000e+00 0.0000000000000000e+00  0.0000000000000000e+00 0.0000000000000000e+00 0.0000000000000000e+00  0.0000000000000000e+00 0.0000000000000000e+00 0.0000000000000000e+00  0.0000000000000000e+00 0.0000000000000000e+00 0.0000000000000000e+00  0.0000000000000000e+00 0.0000000000000000e+00 0.0000000000000000e+00  0.0000000000000000e+00 0.0000000000000000e+00 0.0000000000000000e+00  0.0000000000000000e+00 0.0000000000000000e+00 0.0000000000000000e+00  0.0000000000000000e+00 0.0000000000000000e+00 0.0000000000000000e+00  0.0000000000000000e+00 0.0000000000000000e+00 0.0000000000000000e+00  0.0000000000000000e+00 0.0000000000000000e+00 0.0000000000000000e+00  0.0000000000000000e+00 0.0000000000000000e+00 0.0000000000000000e+00  0.0000000000000000e+00 0.0000000000000000e+00 0.0000000000000000e+00  0.0000000000000000e+00 0.0000000000000000e+00 0.0000000000000000e+00  0.0000000000000000e+00 0.0000000000000000e+00 0.0000000000000000e+00  0.0000000000000000e+00 0.0000000000000000e+00 0.0000000000000000e+00  0.0000000000000000e+00 0.0000000000000000e+00 0.0000000000000000e+00  0.0000000000000000e+00 0.0000000000000000e+00 0.0000000000000000e+00  0.0000000000000000e+00 0.0000000000000000e+00 0.0000000000000000e+00  0.0000000000000000e+00 0.0000000000000000e+00 0.0000000000000000e+00  0.0000000000000000e+00 0.0000000000000000e+00 0.0000000000000000e+00  0.0000000000000000e+00 0.0000000000000000e+00 0.0000000000000000e+00  0.0000000000000000e+00 0.0000000000000000e+00 0.0000000000000000e+00  0.0000000000000000e+00 0.0000000000000000e+00 0.0000000000000000e+00  0.0000000000000000e+00 0.0000000000000000e+00 0.0000000000000000e+00  0.0000000000000000e+00 0.0000000000000000e+00 0.0000000000000000e+00  0.0000000000000000e+00 0.0000000000000000e+00 0.0000000000000000e+00  0.0000000000000000e+00 0.0000000000000000e+00 0.0000000000000000e+00  0.0000000000000000e+00 0.0000000000000000e+00 0.0000000000000000e+00  0.0000000000000000e+00 0.0000000000000000e+00 0.0000000000000000e+00  0.0000000000000000e+00 0.0000000000000000e+00 0.0000000000000000e+00  0.0000000000000000e+00 0.0000000000000000e+00 0.0000000000000000e+00  0.0000000000000000e+00 0.0000000000000000e+00 0.0000000000000000e+00  0.0000000000000000e+00 0.0000000000000000e+00 0.0000000000000000e+00  0.0000000000000000e+00 0.0000000000000000e+00 0.0000000000000000e+00  0.0000000000000000e+00 0.0000000000000000e+00 0.0000000000000000e+00  -1.0034540885984324e-04 2.1293694079854532e-05 0.0000000000000000e+00  1.5434369540454872e-02 -4.1624189787120805e-06 0.0000000000000000e+00  1.4670001423996114e-02 4.8328563748054886e-05 0.0000000000000000e+00  1.5437665268202234e-02 -2.9490971976765916e-07 0.0000000000000000e+00  1.5458122829783958e-02 1.3926321727326775e-05 0.0000000000000000e+00  3.6403518016433574e-06 1.5400920950315517e-02 0.0000000000000000e+00  -1.5395258663151995e-02 1.8651453758832210e-05 0.0000000000000000e+00  1.4315897943801303e-05 1.5412585673291321e-02 0.0000000000000000e+00  -1.4697316739660762e-02 5.7545903455281391e-05 0.0000000000000000e+00  5.6876077209289923e-06 -1.5407545338667039e-02 0.0000000000000000e+00  -2.2325435693341665e-05 -1.4570578317039364e-02 0.0000000000000000e+00  1.7959527171517772e-05 1.4577269566408811e-02 0.0000000000000000e+00  1.6515214414831993e-05 1.5417492057514243e-02 0.0000000000000000e+00  1.6424223544041446e-05 -1.5406888250724565e-02 0.0000000000000000e+00  2.1501564582241895e-05 -1.5437216735035713e-02 0.0000000000000000e+00  -1.5446963127143262e-02 -2.8579019097601242e-06 0.0000000000000000e+00  -1.5425091164836072e-02 -1.4985106385488058e-05 0.0000000000000000e+00  -1.5693462157368795e-05 1.5449951166351965e-02 0.0000000000000000e+00  1.5402808295311283e-02 -1.2939256499554374e-05 0.0000000000000000e+00  -2.2311203581417647e-05 -1.5308199483734060e-02 0.0000000000000000e+00  -1.5360719630301283e-02 -1.6831320349203258e-05 0.0000000000000000e+00  -9.9116783042879682e-03 -2.1131329015638672e-03 0.0000000000000000e+00  1.9176047834063899e-03 -9.6547063122041383e-03 0.0000000000000000e+00  9.6194180794986119e-03 2.1515299370723122e-03 0.0000000000000000e+00  2.0729604657085243e-03 9.6634837476017848e-03 0.0000000000000000e+00  0.0000000000000000e+00 0.0000000000000000e+00 0.0000000000000000e+00  0.0000000000000000e+00 0.0000000000000000e+00 0.0000000000000000e+00  0.0000000000000000e+00 0.0000000000000000e+00 0.0000000000000000e+00  0.0000000000000000e+00 0.0000000000000000e+00 0.0000000000000000e+00  -6.8596812123700827e-03 5.6913112920917554e-03 0.0000000000000000e+00  0.0000000000000000e+00 0.0000000000000000e+00 0.0000000000000000e+00  0.0000000000000000e+00 0.0000000000000000e+00 0.0000000000000000e+00  0.0000000000000000e+00 0.0000000000000000e+00 0.0000000000000000e+00  3.0996626873893343e-05 -1.4730452851695889e-02 0.0000000000000000e+00  0.0000000000000000e+00 0.0000000000000000e+00 0.0000000000000000e+00  -1.5378407368463661e-02 -4.4627469194987772e-06 0.0000000000000000e+00  -1.5224865169627105e-02 2.7153537168210208e-05 0.0000000000000000e+00  -1.5175106882949067e-02 -6.5371523381307086e-06 0.0000000000000000e+00  0.0000000000000000e+00 0.0000000000000000e+00 0.0000000000000000e+00  0.0000000000000000e+00 0.0000000000000000e+00 0.0000000000000000e+00  7.6203049447017726e-06 1.5351711711730290e-02 0.0000000000000000e+00  -5.7573111313103323e-06 1.5331340310929411e-02 0.0000000000000000e+00  0.0000000000000000e+00 0.0000000000000000e+00 0.0000000000000000e+00  0.0000000000000000e+00 0.0000000000000000e+00 0.0000000000000000e+00  7.3653923698067790e-05 1.5177176774403663e-02 0.0000000000000000e+00  -1.2908882705517331e-04 1.5301401795149664e-02 0.0000000000000000e+00  0.0000000000000000e+00 0.0000000000000000e+00 0.0000000000000000e+00  0.0000000000000000e+00 0.0000000000000000e+00 0.0000000000000000e+00  2.8769335258901233e-05 -1.5263412150814394e-02 0.0000000000000000e+00  5.2247687184476245e-06 -1.5370793194665361e-02 0.0000000000000000e+00  0.0000000000000000e+00 0.0000000000000000e+00 0.0000000000000000e+00  -7.1124310584568974e-05 -1.5344827896166412e-02 0.0000000000000000e+00  1.5386855228629299e-04 -1.5246497691688983e-02 0.0000000000000000e+00  0.0000000000000000e+00 0.0000000000000000e+00 0.0000000000000000e+00  0.0000000000000000e+00 0.0000000000000000e+00 0.0000000000000000e+00  0.0000000000000000e+00 0.0000000000000000e+00 0.0000000000000000e+00  0.0000000000000000e+00 0.0000000000000000e+00 0.0000000000000000e+00  0.0000000000000000e+00 0.0000000000000000e+00 0.0000000000000000e+00  0.0000000000000000e+00 0.0000000000000000e+00 0.0000000000000000e+00  -1.5110830371614406e-02 1.2778406912577616e-04 0.0000000000000000e+00  -1.5291947394738353e-02 -1.0855439894679268e-04 0.0000000000000000e+00  0.0000000000000000e+00 0.0000000000000000e+00 0.0000000000000000e+00  0.0000000000000000e+00 0.0000000000000000e+00 0.0000000000000000e+00  0.0000000000000000e+00 0.0000000000000000e+00 0.0000000000000000e+00  0.0000000000000000e+00 0.0000000000000000e+00 0.0000000000000000e+00  0.0000000000000000e+00 0.0000000000000000e+00 0.0000000000000000e+00  0.0000000000000000e+00 0.0000000000000000e+00 0.0000000000000000e+00  1.5089565387775771e-02 1.4859456132823267e-04 0.0000000000000000e+00  1.5149066820766319e-02 -8.8363647186736041e-05 0.0000000000000000e+00  0.0000000000000000e+00 0.0000000000000000e+00 0.0000000000000000e+00  0.0000000000000000e+00 0.0000000000000000e+00 0.0000000000000000e+00  0.0000000000000000e+00 0.0000000000000000e+00 0.0000000000000000e+00  1.5134098659013566e-02 2.4579218026189848e-05 0.0000000000000000e+00  1.5388882043610917e-02 6.5550069677317936e-06 0.0000000000000000e+00  0.0000000000000000e+00 0.0000000000000000e+00 0.0000000000000000e+00  0.0000000000000000e+00 0.0000000000000000e+00 0.0000000000000000e+00  -2.8334629204613752e-03 1.2726676190658270e-02 0.0000000000000000e+00  1.3118113906648706e-02 -2.9355659348294753e-03 0.0000000000000000e+00  -2.6201086683085382e-03 -1.3311903467981737e-02 0.0000000000000000e+00  -1.3463184652411704e-02 2.5813820143763249e-03 0.0000000000000000e+00  2.5195881415687970e-05 -1.4624877492539301e-02 0.0000000000000000e+00  -5.7427495036779158e-06 -1.5317843988984519e-02 0.0000000000000000e+00  -1.5218473248041689e-02 -1.6567264909090553e-05 0.0000000000000000e+00  -1.1535272268038931e-06 1.5290691618969275e-02 0.0000000000000000e+00  3.6880127444654506e-05 1.5178117868290384e-02 0.0000000000000000e+00  6.4678492271707478e-03 -4.0378199966986314e-03 0.0000000000000000e+00  1.4642985336364074e-02 2.1045430558552392e-03 0.0000000000000000e+00  2.2621539784305391e-05 1.4704845393140433e-02 0.0000000000000000e+00  -3.7744518895617206e-03 -6.3628765911698543e-03 0.0000000000000000e+00  -1.5097757872139050e-02 1.9911390609182955e-05 0.0000000000000000e+00  -1.5321755682769085e-02 8.0645954001415562e-06 0.0000000000000000e+00  3.9898259518102981e-05 -1.5115468745832163e-02 0.0000000000000000e+00  1.5357657846446673e-02 1.0130241376243767e-05 0.0000000000000000e+00  1.5184363112520059e-02 2.1812260328467680e-05 0.0000000000000000e+00  1.5284639149639200e-02 4.6124601227675824e-06 0.0000000000000000e+00  1.4482141107214644e-02 -6.9567895837006911e-06 0.0000000000000000e+00  2.5629964134224349e-05 1.5159711030466771e-02 0.0000000000000000e+00  -2.2789847859585269e-05 1.5313126262826311e-02 0.0000000000000000e+00  -7.4184290061110481e-06 -1.5225985970364776e-02 0.0000000000000000e+00  2.4343327647734104e-03 1.5090666189688838e-02 0.0000000000000000e+00  -1.4748937027365662e-02 -2.2741720299431722e-03 0.0000000000000000e+00  2.0754680974342412e-03 -1.4682415845565323e-02 0.0000000000000000e+00  1.1788372534487970e-05 1.5365226938625577e-02 0.0000000000000000e+00  -5.7109215268735131e-06 -1.5447063838294747e-02 0.0000000000000000e+00  -1.5331438259675683e-02 -3.6142993326643928e-05 0.0000000000000000e+00  1.4503151983590243e-02 1.2083035889324354e-05 0.0000000000000000e+00  -1.5181321644349963e-02 -7.1998753805147414e-06 0.0000000000000000e+00  1.5256657861527986e-02 -5.5138014291983627e-07 0.0000000000000000e+00  -1.5370361500444180e-02 -3.9671063227868471e-05 0.0000000000000000e+00  8.4607081711523925e-06 -1.5206810385632728e-02 0.0000000000000000e+00  2.1733842167874088e-06 1.5186830936546812e-02 0.0000000000000000e+00  1.4810653039283150e-02 4.5845759011108853e-05 0.0000000000000000e+00  1.5196522729946701e-02 -8.7888199373228665e-04 0.0000000000000000e+00  1.5249450249225086e-02 -3.0800727340063544e-06 0.0000000000000000e+00  1.3442454764590974e-05 1.5213979212805645e-02 0.0000000000000000e+00  -4.1487205778533866e-05 1.5152225846001005e-02 0.0000000000000000e+00  -1.5219450470500853e-02 -3.7574282616920155e-06 0.0000000000000000e+00  -1.5227959066188144e-02 8.9847477655122005e-04 0.0000000000000000e+00  -5.9933591009357287e-04 -1.5243594227623204e-02 0.0000000000000000e+00  9.9006049529434726e-06 -1.5149161446084447e-02 0.0000000000000000e+00  -6.6075240127454280e-04 1.5349823005046479e-02 0.0000000000000000e+00  -1.5307391263748043e-02 4.3659576805358654e-05 0.0000000000000000e+00  1.9988732502248862e-05 -1.5208179540553809e-02 0.0000000000000000e+00  1.5142162326686446e-02 1.6052075359526952e-06 0.0000000000000000e+00  -1.4642799539880852e-02 4.2299024934995633e-07 0.0000000000000000e+00  1.5320951259320689e-02 -2.9143954337233427e-06 0.0000000000000000e+00  1.4586601951538200e-02 -5.4652738367602341e-05 0.0000000000000000e+00  -1.4611323786691506e-02 -1.0951541813049649e-04 0.0000000000000000e+00  2.0446366854185478e-05 1.5184179748453179e-02 0.0000000000000000e+00  2.4700593355639484e-05 -1.5163027616458878e-02 0.0000000000000000e+00  1.4639940002228907e-02 4.6295069887908926e-04 0.0000000000000000e+00  5.1390318122362943e-04 1.5106320395732297e-02 0.0000000000000000e+00  2.0618334343568512e-05 1.5411624965606730e-02 0.0000000000000000e+00  1.4699792711667749e-02 -3.2856699031240517e-06 0.0000000000000000e+00  -1.5437812327401469e-02 -3.7436140952857513e-06 0.0000000000000000e+00  -1.3162262794755035e-02 3.0248130781419927e-05 0.0000000000000000e+00  1.5001152648327868e-05 1.2642989940053629e-02 0.0000000000000000e+00  -2.3874716768758263e-06 -1.5438888341194740e-02 0.0000000000000000e+00  -4.3654328644532845e-05 -1.2918545617134092e-02 0.0000000000000000e+00  1.5424390072373046e-02 -6.6865222553986105e-06 0.0000000000000000e+00  1.2663523124282349e-02 2.2017327559720229e-05 0.0000000000000000e+00  -5.8778693336229399e-06 1.3184319706652506e-02 0.0000000000000000e+00  -1.4900888788616531e-02 9.7268126973519770e-05 0.0000000000000000e+00  -2.0589931601440957e-05 -1.3169812906879555e-02 0.0000000000000000e+00  4.9277576281146713e-05 1.3111001906146244e-02 0.0000000000000000e+00  -5.8723819026241812e-07 -1.2880537678089358e-02 0.0000000000000000e+00  4.2104382113517568e-03 4.0666618362538050e-03 0.0000000000000000e+00  7.8922853986541051e-03 9.2517428299992727e-03 0.0000000000000000e+00  -1.0255319070390588e-03 5.2874720941910218e-03 0.0000000000000000e+00  6.0449754311227104e-04 -1.5106077279565880e-02 0.0000000000000000e+00  -1.5086155949696563e-02 -5.4163593867215319e-04 0.0000000000000000e+00  -8.3705440354318719e-06 1.5164654115526498e-02 0.0000000000000000e+00  7.1861388784768968e-06 -1.5193336689682674e-02 0.0000000000000000e+00  0.0000000000000000e+00 0.0000000000000000e+00 0.0000000000000000e+00  0.0000000000000000e+00 0.0000000000000000e+00 0.0000000000000000e+00  7.0015634497924803e-04 -1.2992246504797800e-02 0.0000000000000000e+00  -1.3086808559364111e-02 -3.9627450336054179e-04 0.0000000000000000e+00  -4.9386119780898694e-03 -1.2596943972122785e-03 0.0000000000000000e+00  8.2384276961004130e-03 -1.0533387535080230e-02 0.0000000000000000e+00  -1.2939075300630857e-02 -6.5328499248631326e-03 0.0000000000000000e+00  1.3073874827759565e-02 4.0482235369372350e-04 0.0000000000000000e+00  6.0792535550068278e-05 1.2898614945804113e-02 0.0000000000000000e+00  1.2895227994657644e-03 -4.8938483061219187e-03 0.0000000000000000e+00  0.0000000000000000e+00 0.0000000000000000e+00 0.0000000000000000e+00  1.3279393917381279e-02 -2.2261799636768041e-04 0.0000000000000000e+00  -1.7594272701418401e-03 -1.5265897420409942e-02 0.0000000000000000e+00  0.0000000000000000e+00 0.0000000000000000e+00 0.0000000000000000e+00  5.1371302300707470e-05 -1.3154928910099416e-02 0.0000000000000000e+00  0.0000000000000000e+00 0.0000000000000000e+00 0.0000000000000000e+00  6.5746094714806097e-05 1.3481931218066179e-02 0.0000000000000000e+00  -1.3526077661412327e-02 -1.0565572319991138e-04 0.0000000000000000e+00  0.0000000000000000e+00 0.0000000000000000e+00 0.0000000000000000e+00  0.0000000000000000e+00 0.0000000000000000e+00 0.0000000000000000e+00  0.0000000000000000e+00 0.0000000000000000e+00 0.0000000000000000e+00  8.3559654324388140e-06 -1.5395527213749385e-02 0.0000000000000000e+00  -2.8836538468938054e-05 1.5362578935271017e-02 0.0000000000000000e+00  1.5423722689477960e-02 3.2779840888179641e-06 0.0000000000000000e+00  1.5164835049869888e-02 -2.4512375868455813e-04 0.0000000000000000e+00  -1.5357326541459434e-02 -1.5618194297710274e-05 0.0000000000000000e+00  1.2270904521595061e-05 -1.5369567226815223e-02 0.0000000000000000e+00  1.5175546817248456e-05 1.5304213935722897e-02 0.0000000000000000e+00  -1.5427840238795100e-02 2.8655322508664438e-06 0.0000000000000000e+00  1.2826517469286307e-02 1.5769877334222283e-06 0.0000000000000000e+00  0.0000000000000000e+00 0.0000000000000000e+00 0.0000000000000000e+00  0.0000000000000000e+00 0.0000000000000000e+00 0.0000000000000000e+00  3.1999332066729932e-04 -1.3460938357775235e-02 0.0000000000000000e+00  -6.7144020538797923e-05 1.3425078938995241e-02 0.0000000000000000e+00  0.0000000000000000e+00 0.0000000000000000e+00 0.0000000000000000e+00  -1.4762342877120005e-02 2.1306987500234595e-04 0.0000000000000000e+00  0.0000000000000000e+00 0.0000000000000000e+00 0.0000000000000000e+00  0.0000000000000000e+00 0.0000000000000000e+00 0.0000000000000000e+00  1.4866519016984634e-02 3.4620805601028246e-05 0.0000000000000000e+00  -1.4767727862743158e-02 -1.8185419372735550e-05 0.0000000000000000e+00  0.0000000000000000e+00 0.0000000000000000e+00 0.0000000000000000e+00  0.0000000000000000e+00 0.0000000000000000e+00 0.0000000000000000e+00  -7.1558701839892153e-03 -1.1098346405965515e-02 0.0000000000000000e+00  -8.2360017253133114e-06 -1.5162444626194396e-02 0.0000000000000000e+00  -1.5244482157145882e-02 5.4579359272212207e-05 0.0000000000000000e+00  1.5337075141139729e-02 1.9689757974442649e-06 0.0000000000000000e+00  1.2133367059774581e-05 1.5424465451687137e-02 0.0000000000000000e+00  -1.3430877640121864e-02 -6.9259063880952295e-05 0.0000000000000000e+00  9.8873241822473843e-05 1.3220813999130490e-02 0.0000000000000000e+00  -3.7782773454192455e-06 1.3237459076605467e-02 0.0000000000000000e+00  4.2722094588635009e-05 -1.3184195530150603e-02 0.0000000000000000e+00  1.5461509314291411e-05 -1.5243391342460229e-02 0.0000000000000000e+00  0.0000000000000000e+00 0.0000000000000000e+00 0.0000000000000000e+00  3.5998469829240162e-06 -1.5192952294474071e-02 0.0000000000000000e+00  -7.8287959823357799e-03 1.6190991407138771e-03 0.0000000000000000e+00  -1.1874922240917055e-02 7.9770865412440318e-03 0.0000000000000000e+00  1.3736913619169283e-02 6.4148768368573542e-03 0.0000000000000000e+00  -1.1482414275143845e-03 -1.4461146523244569e-02 0.0000000000000000e+00  4.2354115767768933e-03 1.1271943051385763e-04 0.0000000000000000e+00  -1.3626784333458040e-02 -1.4805281185606504e-04 0.0000000000000000e+00  4.0021495146872097e-06 -1.3653362558287903e-02 0.0000000000000000e+00  -1.5639492146606184e-04 1.3621634433111603e-02 0.0000000000000000e+00  1.3467530990675037e-02 1.5152307394432472e-05 0.0000000000000000e+00  1.3398010182061599e-02 -5.8903672914949760e-06 0.0000000000000000e+00  1.2854800317811831e-04 1.5175359748911559e-02 0.0000000000000000e+00  1.3394014499956041e-02 2.5880256777717340e-04 0.0000000000000000e+00  2.2411979049444218e-05 -1.5406819593589735e-02 0.0000000000000000e+00  1.4048529065124486e-05 1.5416572071390269e-02 0.0000000000000000e+00  1.5321873928378948e-02 2.3281111488225261e-05 0.0000000000000000e+00  -1.5408546369472774e-02 2.9957061220692491e-05 0.0000000000000000e+00  -1.3039644193216477e-02 1.0234134614317092e-04 0.0000000000000000e+00  -1.2470422523841099e-04 -1.5164646655026313e-02 0.0000000000000000e+00  -1.2844673764866009e-04 -1.2929755073454174e-02 0.0000000000000000e+00  -1.5138209622967485e-02 3.1745769683507087e-04 0.0000000000000000e+00  1.5430074383645971e-02 1.2178501936333794e-05 0.0000000000000000e+00  3.3710403332768596e-06 1.5369373652714683e-02 0.0000000000000000e+00  1.5153614433836343e-02 2.6001889422385668e-04 0.0000000000000000e+00  -1.7519578889373646e-03 9.4265745481431733e-03 0.0000000000000000e+00  0.0000000000000000e+00 0.0000000000000000e+00 0.0000000000000000e+00  0.0000000000000000e+00 0.0000000000000000e+00 0.0000000000000000e+00  0.0000000000000000e+00 0.0000000000000000e+00 0.0000000000000000e+00  -5.9174714410615663e-06 1.5434628252071180e-02 0.0000000000000000e+00  1.5477953339564417e-05 1.5350828601855942e-02 0.0000000000000000e+00  1.6986286626224308e-05 -1.5374735361196963e-02 0.0000000000000000e+00  -1.5261900864507887e-02 -9.2946178537286654e-06 0.0000000000000000e+00  0.0000000000000000e+00 0.0000000000000000e+00 0.0000000000000000e+00  -3.8530441300978137e-06 -1.5402750955467174e-02 0.0000000000000000e+00  0.0000000000000000e+00 0.0000000000000000e+00 0.0000000000000000e+00  -1.3065502083471374e-02 -1.9699751788116541e-05 0.0000000000000000e+00  -2.7837132690032073e-05 -1.5347700011963349e-02 0.0000000000000000e+00  -1.2790980504525237e-03 1.4104783634890641e-02 0.0000000000000000e+00  -2.2116588917825094e-03 1.5059924203471395e-02 0.0000000000000000e+00  -1.5399495991610831e-02 2.4000424186480194e-06