<?xml version="1.0"?>
<VTKFile type="UnstructuredGrid"  version="0.1"  >
<UnstructuredGrid>
<Piece  NumberOfPoints="778" NumberOfCells="1401">
<Points>
<DataArray  type="Float64"  NumberOfComponents="3"  format="ascii">1 -1 0  6 -1 0  6 1 0  1 1 0  1 6 0  -1 6 0  -1 1 0  -6 1 0  -6 -1 0  -1 -1 0  -1 -6 0  1 -6 0  1 3.5 0  -1 3.5 0  -1 -3.5 0  1 -3.5 0  3.5 -1 0  3.5 1 0  -3.5 -1 0  -3.5 1 0  -1 -2.25 0  1 -2.25 0  2.25 -1 0  2.25 1 0  -1 2.25 0  1 2.25 0  -1 4.75 0  1 4.75 0  -4.75 -1 0  -4.75 1 0  -2.25 1 0  -2.25 -1 0  1 -4.75 0  -1 -4.75 0  4.75 1 0  4.75 -1 0  0 0 0  -2.875 0 0  -1.625 0 0  -4.125 0 0  -6 0 0  0 2.875 0  2.875 0 0  0 6 0  1.625 0 0  0 -2.875 0  0 -1.625 0  0 1.625 0  0 4.125 0  0 -6 0  0 -4.125 0  4.125 0 0  6 0 0  -0.109375 5.0625 0  -5.0625 -0.109375 0  -0.109375 -5.0625 0  5.0625 0.109375 0  0.8125 -0.1875 0  -0.1875 -0.8125 0  -0.8125 0.1875 0  -0.1875 0.8125 0  1 5.375 0  -5.375 1 0  1 -5.375 0  5.375 -1 0  0.53515625 0.46484375 0  -5.375 -1 0  -1 5.375 0  -1 -5.375 0  -0.5 -6 0  5.375 1 0  6 0.5 0  3.5 0.3046875 0  3.43125 -0.34765625 0  2.875 -1 0  4.125 1 0  0.3046875 3.5 0  -0.34765625 3.56875 0  -1 4.125 0  1 4.125 0  -0.3046875 2.25 0  0.34765625 2.18125 0  1 1.625 0  -1 -1.625 0  -0.3046875 -3.5 0  0.34765625 -3.56875 0  1 -4.125 0  0.3046875 -2.25 0  -0.34765625 -2.18125 0  -1 -4.125 0  -1 -2.875 0  1 -2.875 0  1 -1.625 0  1.625 -1 0  1.625 1 0  2.25 0.3046875 0  2.18125 -0.34765625 0  4.125 -1 0  2.875 1 0  1 2.875 0  -1 1.625 0  -1 2.875 0  -4.125 -1 0  -2.25 0.3046875 0  -2.31875 -0.34765625 0  -2.875 -1 0  -1.625 1 0  -4.125 1 0  -3.5 0.3046875 0  -3.56875 -0.34765625 0  -1.625 -1 0  -2.875 1 0  0.380626321794301 1.06853329530276 0  -1.110819327731092 -0.3739495798319328 0  0.3739495798319328 -1.110819327731092 0  1.151210293219304 0.3991939332620648 0  -0.5 -4.4375 0  0.5 -4.4375 0  5.481553398058253 -0.3712833737864077 0  0.5 4.4375 0  0.5 6 0  -0.522503783594538 -0.3265648647465863 0  -1.3125 0.5 0  -0.5 6 0  0.3265648647465863 -0.522503783594538 0  4.4375 0.5 0  4.4375 -0.5 0  0.5 -6 0  -6 -0.5 0  -5.481553398058253 0.3712833737864077 0  -4.55 -0.4296875 0  -4.4375 0.5 0  -0.5 4.4375 0  0.4792930825242718 5.026881067961165 0  0.4792930825242718 -5.026881067961165 0  -0.5 1.3125 0  1.3125 -0.5 0  -0.5 -1.3125 0  0.25 5.518539952962044 0  0.2125133872612723 -5.500076563152851 0  4.969341874373811 -0.5152550785163683 0  -4.969341874373811 0.5152550785163683 0  3.927189744345589 -0.4712876597840069 0  -5.554036458333333 -0.25 0  5.554036458333333 0.25 0  -0.4690710616438356 -5.462756849315069 0  -0.4690710616438356 5.462756849315069 0  -6 0.5 0  -1.59556436210848 -0.5 0  -3.058421751829955 -0.5 0  -0.5 2.731982421875 0  0.5 2.691578248170045 0  2.691578248170045 -0.5 0  1.641211254104555 0.5 0  0.5 -1.768017578125 0  0.5 -3.058421751829955 0  0.5 1.699267578125 0  3.018017578125 0.5 0  -0.5 -3.018017578125 0  -2.731982421875 0.5 0  6 -0.5 0  -4.050017120925308 -0.5006099332648871 0  -3.940668202764977 0.5371363767281105 0  3.940668202764977 0.5371363767281105 0  0.4517449476047904 3.958458083832335 0  -0.4517449476047904 -3.958458083832335 0  -1.809331797235023 0.5371363767281105 0  -0.4517449476047904 1.791541916167665 0  -0.0546875 4.59375 0  -5.006445312499999 -0.58984375 0  4.605643203883496 -0.04725424757281554 0  4.90625 0.5546875 0  -0.5546875 4.90625 0  0.04725424757281554 -4.605643203883496 0  -0.586116118210531 -4.995821561900013 0  -4.603710222472543 0.04846236095466061 0  -3.1875 0.65234375 0  0.6163907621110913 3.147502300973589 0  2.5625 0.65234375 0  0.6163907621110913 -2.602497699026411 0  -0.637456713551384 3.189259902731882 0  -0.637456713551384 -2.560740097268118 0  -0.34765625 0.34765625 0  -0.639453125 0.708203125 0  0.089630126953125 0.437286376953125 0  -0.4238281249999999 -1.746875 0  1.746875 -0.4238281249999999 0  -0.4238281249999999 4.003125 0  0.4238281249999999 -4.003125 0  -2.5625 -1 0  3.1875 -1 0  -0.09375 -1.21875 0  1.21875 -0.09375 0  0.4020305405760241 -0.1120343241705621 0  -0.6280191027904287 -0.7577505545748082 0  0.90625 -0.59375 0  -1.205500904741459 0.03633725387965409 0  -0.02129048848213058 1.202028574265107 0  -0.1120343241705621 -0.4020305405760241 0  1 1.3125 0  -2.003587563743074 -0.6442361556699288 0  0.6640077663259718 -1.395873598614549 0  5.6875 -1 0  0.6308138580859101 -5.592151086468728 0  -5.6875 -1 0  0.6568032075915271 5.612942566073222 0  5.616530031741774 0.6612875396772174 0  -5.6875 1 0  1.9375 1 0  -1.3125 -1 0  0.1524679547155687 -3.232579139388032 0  0.1524679547155687 2.517420860611968 0  -3.232579139388032 -0.1524679547155687 0  -1.932320553757026 -0.252759244693845 0  2.517420860611968 -0.1524679547155687 0  -0.04776045819569434 -2.464949198504599 0  -0.2420369079104247 3.187693796852321 0  3.751304711039982 -0.1203080877045035 0  -5.397601941771943 -0.609026059866711 0  1.3125 1 0  1.9375 -1 0  -0.6946315101963667 -2.018229242739021 0  -0.6946315101963667 3.731770757260979 0  1 -3.8125 0  2.014364435550335 0.6166648446293641 0  -1 5.6875 0  -1 -5.6875 0  -2.653476149871182 -0.5942957192996303 0  3.096523850128818 -0.5942957192996303 0  1 1.9375 0  -3.8125 -1 0  0.586975531244212 -0.7975955463807081 0  -0.2946248980953088 -4.743710873809568 0  2.625453376770019 0.2814788818359375 0  -3.124546623229981 0.2814788818359375 0  -0.1204856417894853 5.631800603217465 0  5.253862011026742 0.6581468962876398 0  -0.65234375 2.108701557941197 0  0.65234375 3.641298442058803 0  -0.65234375 -3.641298442058803 0  -0.25 -5.744880569758637 0  -4.4375 -1 0  -0.3166212631734941 -2.713595940002554 0  0.6591479224207506 0.1324305912687024 0  0.8660781906552419 0.6468634238104103 0  -0.9887189158197679 0.6452930723873549 0  0.3149351927204296 -1.460971774996065 0  -0.3572852727880474 -0.009629022788047503 0  2.09375 -0.6866724363772454 0  0.6866724363772454 -3.65625 0  0.6866724363772454 2.09375 0  -3.65625 -0.6866724363772454 0  -3.5371337890625 0.65234375 0  -0.1389584113023952 1.944025352615082 0  -2.151744288472698 0.65234375 0  -0.1389584113023951 -3.805974647384918 0  0.1389584113023951 3.805974647384918 0  -2.578772109813904 0.1857224367977529 0  3.171227890186096 0.1857224367977529 0  3.360315647536819 0.65234375 0  0.1857224367977528 -1.921227890186096 0  0.65234375 -2.110315647536819 0  1.894016528727564 0.2415406141485869 0  -3.738232421875 0 0  0.2516875549238616 3.139069895099618 0  -1.913724396854074 0.2011142179916434 0  0.1669456568161915 0.7843410671359501 0  -2.5625 1 0  -1 -3.1875 0  -1 2.5625 0  0.1736601499778735 4.857955663330752 0  -0.1893536587212888 2.577300639071919 0  -0.1893536587212888 -3.172699360928081 0  3.852271904453858 0.206603749322895 0  -3.8125 1 0  -0.1250095034621793 -5.421707592768541 0  3.8125 -1 0  3.617304217264373 -0.6578427703661498 0  0.2630176195580202 -2.636558318495885 0  0.2674330357770522 1.399517071108871 0  0.631726413079416 1.339254523727593 0  4.700571879807737 0.2813704945051134 0  0.7143844363649634 -3.319538455208831 0  2.430461544791169 -0.7143844363649634 0  0.7143844363649634 2.430461544791169 0  -3.319538455208831 -0.7143844363649634 0  5.687045771608623 -0.6520598572553891 0  -5.687045771608623 0.6520598572553891 0  -1.15625 -0.7048248829733235 0  3.438284572973296 -0.01860298867862281 0  -0.03021088078697859 3.451572359862192 0  2.216682837011589 -0.02159585961918548 0  -2.191580885932936 -0.03126387444658879 0  0.1857410764408683 1.895679405349457 0  3.103473238297955 -0.253270943723272 0  -2.646526761702045 -0.253270943723272 0  -2.333137350671861 -0.6791984914172315 0  -1 5.0625 0  -0.6971235589909319 5.213002544375844 0  0.01618705363819947 2.225929180591695 0  0.01618705363819947 -3.524070819408305 0  0.5690054882403073 0.7951310720450595 0  -0.5764940424412852 -3.329579265180942 0  -0.5764940424412852 2.420420734819058 0  3.8125 1 0  -5.372163860234628 0.04365139563106807 0  5.164108319316826 -0.225040894204947 0  -5.361952437854323 0.6744012088984681 0  -5.0625 1 0  5.286835586913878 -0.6616705837083201 0  -5.692815197359722 0.1186699900166531 0  5.663425996156958 -0.07763197815533956 0  -0.9219866027132193 -0.1143045829323572 0  -1.394333629759332 -0.2233077430199216 0  0.09322478991596644 -0.9616596638655462 0  5.0625 -1 0  -0.14412109375 -1.92169189453125 0  -4.28125 -0.7212148987671345 0  0.2649796277366407 0.1735162902120744 0  -4.907855692236596 0.1868230509619793 0  -1.9375 1 0  1 5.0625 0  0.6915124486819284 -5.272938212550202 0  0.683483242673902 5.284948082526911 0  2.5625 -1 0  -1 -3.8125 0  -1 1.9375 0  5.0625 1 0  -1 -1.9375 0  1 5.6875 0  1 -5.6875 0  -1.9375 -1 0  -1 -2.5625 0  -1 3.1875 0  1 -3.1875 0  1 -2.5625 0  1 2.5625 0  1 3.1875 0  -5.0625 -1 0  -1 -1.3125 0  1.3125 -1 0  -1 1.3125 0  -1 3.8125 0  -1 4.4375 0  -4.4375 1 0  4.4375 -1 0  4.4375 1 0  -1.3125 1 0  1 4.4375 0  1 -4.4375 0  -1 -5.0625 0  -1 -4.4375 0  -3.1875 1 0  2.5625 1 0  1 -1.9375 0  1 -1.3125 0  5.6875 1 0  1 3.8125 0  3.1875 1 0  -3.1875 -1 0  1 -5.0625 0  1.35138038998199 0.6675097549271188 0  -0.465625 0.986328125 0  1.435958105992309 0.2563920171199723 0  1.915914614192913 -0.145782394639918 0  -0.8764440609469509 -0.5746869313612541 0  5.355194559946098 0.01566259380337612 0  -5.69333042954964 -0.5242868300459975 0  1.78125 -0.7320750794491524 0  0.7320750794491525 -3.96875 0  -0.3959075548864684 5.166422468926435 0  -4.770522389068053 -0.2123670725088856 0  -4.714160156249999 -0.69234375 0  -4.273484403713342 -0.278160994327167 0  0.9642590244517505 0.08196089404241463 0  0.3500261717645397 -4.727285205957206 0  0.6740868006020392 -4.765147848348443 0  0.6797550207247084 -1.089747806381148 0  -5.186479934354063 0.3046329157552757 0  -5.263288238215326 -0.3369092276308425 0  -2.433484016245305 0.5442571297016638 0  0.1707808983307866 -3.82363304980935 0  -0.1554012991031027 3.867535742674252 0  4.855508096805579 -0.2283975605264581 0  3.644517238097614 0.5646428152488787 0  0.05699603874439441 -0.6452791208413911 0  -0.3550018917972689 -0.5695324323732931 0  0.6
[...]
<PointData  Vectors="u"> 
<DataArray  type="Float64"  Name="u"  NumberOfComponents="3" format="ascii">0.0000000000000000e+00 0.0000000000000000e+00 0.0000000000000000e+00  0.0000000000000000e+00 0.0000000000000000e+00 0.0000000000000000e+00  0.0000000000000000e+00 0.0000000000000000e+00 0.0000000000000000e+00  0.0000000000000000e+00 0.0000000000000000e+00 0.0000000000000000e+00  0.0000000000000000e+00 0.0000000000000000e+00 0.0000000000000000e+00  0.0000000000000000e+00 0.0000000000000000e+00 0.0000000000000000e+00  0.0000000000000000e+00 0.0000000000000000e+00 0.0000000000000000e+00  0.0000000000000000e+00 0.0000000000000000e+00 0.0000000000000000e+00  0.0000000000000000e+00 0.0000000000000000e+00 0.0000000000000000e+00  0.0000000000000000e+00 0.0000000000000000e+00 0.0000000000000000e+00  0.0000000000000000e+00 0.0000000000000000e+00 0.0000000000000000e+00  0.0000000000000000e+00 0.0000000000000000e+00 0.0000000000000000e+00  0.0000000000000000e+00 0.0000000000000000e+00 0.0000000000000000e+00  0.0000000000000000e+00 0.0000000000000000e+00 0.0000000000000000e+00  0.0000000000000000e+00 0.0000000000000000e+00 0.0000000000000000e+00  0.0000000000000000e+00 0.0000000000000000e+00 0.0000000000000000e+00  0.0000000000000000e+00 0.0000000000000000e+00 0.0000000000000000e+00  0.0000000000000000e+00 0.0000000000000000e+00 0.0000000000000000e+00  0.0000000000000000e+00 0.0000000000000000e+00 0.0000000000000000e+00  0.0000000000000000e+00 0.0000000000000000e+00 0.0000000000000000e+00  0.0000000000000000e+00 0.0000000000000000e+00 0.0000000000000000e+00  0.0000000000000000e+00 0.0000000000000000e+00 0.0000000000000000e+00  0.0000000000000000e+00 0.0000000000000000e+00 0.0000000000000000e+00  0.0000000000000000e+00 0.0000000000000000e+00 0.0000000000000000e+00  0.0000000000000000e+00 0.0000000000000000e+00 0.0000000000000000e+00  0.0000000000000000e+00 0.0000000000000000e+00 0.0000000000000000e+00  0.0000000000000000e+00 0.0000000000000000e+00 0.0000000000000000e+00  0.0000000000000000e+00 0.0000000000000000e+00 0.0000000000000000e+00  0.0000000000000000e+00 0.0000000000000000e+00 0.0000000000000000e+00  0.0000000000000000e+00 0.0000000000000000e+00 0.0000000000000000e+00  0.0000000000000000e+00 0.0000000000000000e+00 0.0000000000000000e+00  0.0000000000000000e+00 0.0000000000000000e+00 0.0000000000000000e+00  0.0000000000000000e+00 0.0000000000000000e+00 0.0000000000000000e+00  0.0000000000000000e+00 0.0000000000000000e+00 0.0000000000000000e+00  0.0000000000000000e+00 0.0000000000000000e+00 0.0000000000000000e+00  0.0000000000000000e+00 0.0000000000000000e+00 0.0000000000000000e+00  -2.0138865593754486e-04 9.5948180618645335e-05 0.0000000000000000e+00  4.7758552314826209e-02 -1.1283665804150365e-05 0.0000000000000000e+00  4.5592093074971973e-02 6.6563698920871854e-05 0.0000000000000000e+00  4.7812826161623176e-02 3.2408598235372152e-06 0.0000000000000000e+00  4.7858817418390799e-02 3.4754189036953849e-05 0.0000000000000000e+00  1.1758502158953379e-05 4.7740438029434479e-02 0.0000000000000000e+00  -4.7671149604018075e-02 4.2810102494921979e-05 0.0000000000000000e+00  3.7120672835414402e-05 4.7688078351999785e-02 0.0000000000000000e+00  -4.5685697638071510e-02 1.1573104243927916e-04 0.0000000000000000e+00  7.6026071028657206e-06 -4.7712427746721124e-02 0.0000000000000000e+00  -2.0313764554701833e-05 -4.5491102897728224e-02 0.0000000000000000e+00  3.9836090370701044e-05 4.5437908506515620e-02 0.0000000000000000e+00  3.6253133938141597e-05 4.7707390767993484e-02 0.0000000000000000e+00  3.8394326787589941e-05 -4.7705606560582370e-02 0.0000000000000000e+00  6.3013913206180815e-05 -4.7768465782810694e-02 0.0000000000000000e+00  -4.7823689229232698e-02 -1.5479761088122337e-05 0.0000000000000000e+00  -4.7782434355324893e-02 -4.4113894532320419e-05 0.0000000000000000e+00  -5.8478024590581909e-05 4.7824917619302187e-02 0.0000000000000000e+00  4.7759859048200431e-02 -5.9803316851042924e-05 0.0000000000000000e+00  -7.4546643051138963e-05 -4.7557309321568091e-02 0.0000000000000000e+00  -4.7673596381863415e-02 -5.7541902472422839e-05 0.0000000000000000e+00  -3.0891930163208615e-02 -6.4330459158247841e-03 0.0000000000000000e+00  6.1854551044934272e-03 -3.0404302427427060e-02 0.0000000000000000e+00  3.0308667980035040e-02 6.3588146103773892e-03 0.0000000000000000e+00  6.4215606434226595e-03 3.0454509305058858e-02 0.0000000000000000e+00  0.0000000000000000e+00 0.0000000000000000e+00 0.0000000000000000e+00  0.0000000000000000e+00 0.0000000000000000e+00 0.0000000000000000e+00  0.0000000000000000e+00 0.0000000000000000e+00 0.0000000000000000e+00  0.0000000000000000e+00 0.0000000000000000e+00 0.0000000000000000e+00  -2.1295958981960073e-02 1.7926584767897352e-02 0.0000000000000000e+00  0.0000000000000000e+00 0.0000000000000000e+00 0.0000000000000000e+00  0.0000000000000000e+00 0.0000000000000000e+00 0.0000000000000000e+00  0.0000000000000000e+00 0.0000000000000000e+00 0.0000000000000000e+00  6.1575737345333315e-05 -4.5521689293355400e-02 0.0000000000000000e+00  0.0000000000000000e+00 0.0000000000000000e+00 0.0000000000000000e+00  -4.7592246423719356e-02 -3.4094861296824647e-07 0.0000000000000000e+00  -4.7788212596433378e-02 5.9954070306810154e-05 0.0000000000000000e+00  -4.7673338034698920e-02 1.1612246473315566e-05 0.0000000000000000e+00  0.0000000000000000e+00 0.0000000000000000e+00 0.0000000000000000e+00  0.0000000000000000e+00 0.0000000000000000e+00 0.0000000000000000e+00  2.5863729982001383e-05 4.7687988462922680e-02 0.0000000000000000e+00  -6.4090135188482485e-06 4.7773860165987454e-02 0.0000000000000000e+00  0.0000000000000000e+00 0.0000000000000000e+00 0.0000000000000000e+00  0.0000000000000000e+00 0.0000000000000000e+00 0.0000000000000000e+00  2.3099797864326756e-04 4.7443128441405656e-02 0.0000000000000000e+00  -3.5203799940898068e-04 4.7541997800367615e-02 0.0000000000000000e+00  0.0000000000000000e+00 0.0000000000000000e+00 0.0000000000000000e+00  0.0000000000000000e+00 0.0000000000000000e+00 0.0000000000000000e+00  4.7018304611317360e-05 -4.7651872615884980e-02 0.0000000000000000e+00  1.5689740120444103e-05 -4.7727718167876833e-02 0.0000000000000000e+00  0.0000000000000000e+00 0.0000000000000000e+00 0.0000000000000000e+00  -2.0868383801804288e-04 -4.7532777880739487e-02 0.0000000000000000e+00  4.3389445461665513e-04 -4.7563032406120150e-02 0.0000000000000000e+00  0.0000000000000000e+00 0.0000000000000000e+00 0.0000000000000000e+00  0.0000000000000000e+00 0.0000000000000000e+00 0.0000000000000000e+00  0.0000000000000000e+00 0.0000000000000000e+00 0.0000000000000000e+00  0.0000000000000000e+00 0.0000000000000000e+00 0.0000000000000000e+00  0.0000000000000000e+00 0.0000000000000000e+00 0.0000000000000000e+00  0.0000000000000000e+00 0.0000000000000000e+00 0.0000000000000000e+00  -4.7414579635371060e-02 3.1767161972041491e-04 0.0000000000000000e+00  -4.7504139345282068e-02 -3.1315131641451651e-04 0.0000000000000000e+00  0.0000000000000000e+00 0.0000000000000000e+00 0.0000000000000000e+00  0.0000000000000000e+00 0.0000000000000000e+00 0.0000000000000000e+00  0.0000000000000000e+00 0.0000000000000000e+00 0.0000000000000000e+00  0.0000000000000000e+00 0.0000000000000000e+00 0.0000000000000000e+00  0.0000000000000000e+00 0.0000000000000000e+00 0.0000000000000000e+00  0.0000000000000000e+00 0.0000000000000000e+00 0.0000000000000000e+00  4.7528420582320915e-02 3.3769472850309816e-04 0.0000000000000000e+00  4.7618256300329842e-02 -2.8515639230901639e-04 0.0000000000000000e+00  0.0000000000000000e+00 0.0000000000000000e+00 0.0000000000000000e+00  0.0000000000000000e+00 0.0000000000000000e+00 0.0000000000000000e+00  0.0000000000000000e+00 0.0000000000000000e+00 0.0000000000000000e+00  4.7513423467135607e-02 8.0893344794080588e-05 0.0000000000000000e+00  4.7762561322705663e-02 2.2729182269946554e-05 0.0000000000000000e+00  0.0000000000000000e+00 0.0000000000000000e+00 0.0000000000000000e+00  0.0000000000000000e+00 0.0000000000000000e+00 0.0000000000000000e+00  -8.8760140405973759e-03 4.0166673132973063e-02 0.0000000000000000e+00  4.1365523426140603e-02 -8.7362656593802917e-03 0.0000000000000000e+00  -8.2759047037300523e-03 -4.1774530646655053e-02 0.0000000000000000e+00  -4.2264658750865845e-02 7.8225931497036792e-03 0.0000000000000000e+00  4.2168427710115934e-05 -4.5390544663343149e-02 0.0000000000000000e+00  -2.7547428005837072e-06 -4.7757941619426800e-02 0.0000000000000000e+00  -4.7737223129635679e-02 -6.2581635453282011e-05 0.0000000000000000e+00  2.7147303287592481e-06 4.7674367746327044e-02 0.0000000000000000e+00  4.8483775320866709e-05 4.7610639409485941e-02 0.0000000000000000e+00  2.0161646126960964e-02 -1.2608227947142803e-02 0.0000000000000000e+00  4.5979356647935898e-02 6.4847978719289731e-03 0.0000000000000000e+00  3.1194651821215607e-05 4.5505089602673882e-02 0.0000000000000000e+00  -1.2071798966069051e-02 -2.0095519294744239e-02 0.0000000000000000e+00  -4.7584536286731115e-02 -1.8829711464785735e-05 0.0000000000000000e+00  -4.7789050937959369e-02 8.7843950379645179e-06 0.0000000000000000e+00  3.5852774085814126e-05 -4.7589966473109320e-02 0.0000000000000000e+00  4.7860497888651189e-02 2.3572816224571440e-06 0.0000000000000000e+00  4.7650604831267006e-02 5.1374153688518658e-05 0.0000000000000000e+00  4.7832866324990765e-02 6.1806943723377903e-06 0.0000000000000000e+00  4.5202878174561999e-02 -1.4818128085337927e-05 0.0000000000000000e+00  2.5287724318226332e-05 4.7496334979238837e-02 0.0000000000000000e+00  -3.7527222592925342e-05 4.7785733313620890e-02 0.0000000000000000e+00  -2.7406741147396122e-05 -4.7703398772464572e-02 0.0000000000000000e+00  7.0397370803582503e-03 4.7299832613382976e-02 0.0000000000000000e+00  -4.6486915481570135e-02 -6.5641019113217595e-03 0.0000000000000000e+00  6.4709241443497373e-03 -4.6024442180854233e-02 0.0000000000000000e+00  3.1519225004980557e-05 4.7682933103166819e-02 0.0000000000000000e+00  -2.3045146776145139e-05 -4.7796599773752058e-02 0.0000000000000000e+00  -4.7838505815998474e-02 -6.2215249078397894e-05 0.0000000000000000e+00  4.5646350272941304e-02 7.6109227127758454e-06 0.0000000000000000e+00  -4.7674683185104420e-02 -2.5567580079689318e-05 0.0000000000000000e+00  4.7722379219485578e-02 -5.5170196261711732e-05 0.0000000000000000e+00  -4.7727865420491941e-02 -1.2910561171160042e-04 0.0000000000000000e+00  3.9182494595253349e-06 -4.7588178558199613e-02 0.0000000000000000e+00  1.1261646673324591e-05 4.7614151698951571e-02 0.0000000000000000e+00  4.6187994209151199e-02 1.1132601400193553e-04 0.0000000000000000e+00  4.7486313088434935e-02 -2.5267049535548959e-03 0.0000000000000000e+00  4.7760579586171935e-02 1.1395196950863489e-05 0.0000000000000000e+00  7.2818017736770828e-07 4.7706970028670942e-02 0.0000000000000000e+00  -9.0514056706178742e-05 4.7579684363537475e-02 0.0000000000000000e+00  -4.7694669677269777e-02 -2.3666528809891197e-05 0.0000000000000000e+00  -4.7560297828258200e-02 2.5115580152596600e-03 0.0000000000000000e+00  -1.5313295862607380e-03 -4.7394704488900437e-02 0.0000000000000000e+00  -4.6372779080969653e-06 -4.7624090065583179e-02 0.0000000000000000e+00  -1.7509953556387112e-03 4.7726764498842313e-02 0.0000000000000000e+00  -4.7624322126130721e-02 9.7811546332083729e-05 0.0000000000000000e+00  8.8035106990154603e-05 -4.7628432824216860e-02 0.0000000000000000e+00  4.7677710600191638e-02 3.7754004083896657e-06 0.0000000000000000e+00  -4.6019116072363489e-02 -3.9873122966243757e-05 0.0000000000000000e+00  4.7771222881393446e-02 -4.1873902224557006e-06 0.0000000000000000e+00  4.5768656482271998e-02 -1.6624932148957049e-04 0.0000000000000000e+00  -4.5765957681382551e-02 -3.5476509628338951e-04 0.0000000000000000e+00  3.2126223476550664e-05 4.7655070365601779e-02 0.0000000000000000e+00  7.5024010850510464e-05 -4.7646401900465533e-02 0.0000000000000000e+00  4.5541494320173251e-02 1.3176452466394052e-03 0.0000000000000000e+00  1.4122188370058652e-03 4.7103535889475336e-02 0.0000000000000000e+00  5.3394811753783038e-05 4.7738878372330588e-02 0.0000000000000000e+00  4.6184415855781133e-02 5.8432190899479288e-05 0.0000000000000000e+00  -4.7803482005669869e-02 -8.6278635939809425e-06 0.0000000000000000e+00  -4.2770948882233130e-02 7.8903965538997632e-05 0.0000000000000000e+00  5.8915888051439908e-05 4.1741953319789672e-02 0.0000000000000000e+00  -1.0885330321139866e-05 -4.7825004156942928e-02 0.0000000000000000e+00  -1.7975496206749494e-04 -4.2357000601302569e-02 0.0000000000000000e+00  4.7829849470777522e-02 -3.2850477210884279e-05 0.0000000000000000e+00  4.2295464845981789e-02 9.6773463031745788e-05 0.0000000000000000e+00  2.6784527154314503e-05 4.3145085260703729e-02 0.0000000000000000e+00  -4.6875623881433799e-02 2.6772599976287195e-04 0.0000000000000000e+00  -1.4653666753477592e-04 -4.3084212375420615e-02 0.0000000000000000e+00  1.9898717024342295e-04 4.3506974432307284e-02 0.0000000000000000e+00  -6.9524129870812272e-05 -4.3504281911955441e-02 0.0000000000000000e+00  1.3271700282268852e-02 1.3037703331898317e-02 0.0000000000000000e+00  2.5283627059410514e-02 2.9184180125684595e-02 0.0000000000000000e+00  -3.3994571544426564e-03 1.6643692433710250e-02 0.0000000000000000e+00  1.6969959330225151e-03 -4.7139724568445264e-02 0.0000000000000000e+00  -4.7006954936274270e-02 -1.5287473765330745e-03 0.0000000000000000e+00  -2.2654960215630502e-05 4.7573079999446578e-02 0.0000000000000000e+00  1.4270524918504808e-06 -4.7659289443824804e-02 0.0000000000000000e+00  0.0000000000000000e+00 0.0000000000000000e+00 0.0000000000000000e+00  0.0000000000000000e+00 0.0000000000000000e+00 0.0000000000000000e+00  2.1188662415780888e-03 -4.0819138767137920e-02 0.0000000000000000e+00  -4.0850451221503069e-02 -1.4142657780526553e-03 0.0000000000000000e+00  -1.5506084960925320e-02 -4.0381934294379911e-03 0.0000000000000000e+00  2.5373796200014578e-02 -3.3106643230224247e-02 0.0000000000000000e+00  -4.1181709278036646e-02 -1.9606447849497628e-02 0.0000000000000000e+00  4.0702321692466667e-02 1.0567367914911441e-03 0.0000000000000000e+00  3.7515228573085582e-04 4.0302824268514809e-02 0.0000000000000000e+00  4.1510676169763012e-03 -1.5352266604058121e-02 0.0000000000000000e+00  0.0000000000000000e+00 0.0000000000000000e+00 0.0000000000000000e+00  4.3788929814400669e-02 -6.8691297572120828e-04 0.0000000000000000e+00  -4.1608402123803042e-03 -4.7562388791638835e-02 0.0000000000000000e+00  0.0000000000000000e+00 0.0000000000000000e+00 0.0000000000000000e+00  1.8690560174520072e-04 -4.3687853624802188e-02 0.0000000000000000e+00  0.0000000000000000e+00 0.0000000000000000e+00 0.0000000000000000e+00  2.5116446427156754e-04 4.4325374949969416e-02 0.0000000000000000e+00  -4.4475915754613536e-02 -3.8092032069694343e-04 0.0000000000000000e+00  0.0000000000000000e+00 0.0000000000000000e+00 0.0000000000000000e+00  0.0000000000000000e+00 0.0000000000000000e+00 0.0000000000000000e+00  0.0000000000000000e+00 0.0000000000000000e+00 0.0000000000000000e+00  3.0350947153905103e-05 -4.7727075007263572e-02 0.0000000000000000e+00  -7.2675356436090825e-05 4.7644510273173540e-02 0.0000000000000000e+00  4.7772961463559312e-02 1.3023288631986351e-05 0.0000000000000000e+00  4.7167562149545761e-02 -6.8245722989172721e-04 0.0000000000000000e+00  -4.7604793807686667e-02 -3.8200721010608551e-05 0.0000000000000000e+00  3.2188424206532081e-05 -4.7659519023292539e-02 0.0000000000000000e+00  6.4907567713612591e-05 4.7712715401651930e-02 0.0000000000000000e+00  -4.7836755890066321e-02 8.0358429667049182e-06 0.0000000000000000e+00  4.2942225090732082e-02 2.5479209859042013e-06 0.0000000000000000e+00  0.0000000000000000e+00 0.0000000000000000e+00 0.0000000000000000e+00  0.0000000000000000e+00 0.0000000000000000e+00 0.0000000000000000e+00  8.9978613998684771e-04 -4.4637769385563290e-02 0.0000000000000000e+00  -2.4383322738104915e-04 4.4737839693612294e-02 0.0000000000000000e+00  0.0000000000000000e+00 0.0000000000000000e+00 0.0000000000000000e+00  -4.6449261965308367e-02 5.6033345500238016e-04 0.0000000000000000e+00  0.0000000000000000e+00 0.0000000000000000e+00 0.0000000000000000e+00  0.0000000000000000e+00 0.0000000000000000e+00 0.0000000000000000e+00  4.6400269884579161e-02 1.6581523002092398e-04 0.0000000000000000e+00  -4.6055082744050839e-02 -5.1134746295208000e-05 0.0000000000000000e+00  0.0000000000000000e+00 0.0000000000000000e+00 0.0000000000000000e+00  0.0000000000000000e+00 0.0000000000000000e+00 0.0000000000000000e+00  -2.2315090136318994e-02 -3.5072476102130060e-02 0.0000000000000000e+00  -6.6313868975169233e-05 -4.7688524587870165e-02 0.0000000000000000e+00  -4.7562006190596931e-02 1.1544754297583859e-04 0.0000000000000000e+00  4.7696535656976617e-02 -6.6972531693864284e-06 0.0000000000000000e+00  4.2153710042330549e-05 4.7761371220380502e-02 0.0000000000000000e+00  -4.4729608257692892e-02 -2.0562814650297830e-04 0.0000000000000000e+00  2.4600084526778379e-04 4.4398954873740501e-02 0.0000000000000000e+00  -8.2871428422907664e-05 4.3744767071576228e-02 0.0000000000000000e+00  1.4790379700384558e-04 -4.4085236358684401e-02 0.0000000000000000e+00  5.5471384547940648e-05 -4.7609380234059882e-02 0.0000000000000000e+00  0.0000000000000000e+00 0.0000000000000000e+00 0.0000000000000000e+00  5.4156342672189760e-06 -4.7599549024167818e-02 0.0000000000000000e+00  -2.4882229152577633e-02 4.9119997328215849e-03 0.0000000000000000e+00  -3.7265906167174463e-02 2.4971262056078487e-02 0.0000000000000000e+00  4.3306591676183545e-02 2.0057092708954984e-02 0.0000000000000000e+00  -3.2222642932196606e-03 -4.5048464903131843e-02 0.0000000000000000e+00  1.3470287806738881e-02 -1.6200878950534606e-05 0.0000000000000000e+00  -4.4875176065272832e-02 -4.0263117434008065e-04 0.0000000000000000e+00  1.6161531776603295e-05 -4.4743228336896937e-02 0.0000000000000000e+00  -4.2446848570376681e-04 4.4845836633845108e-02 0.0000000000000000e+00  4.4454269816089735e-02 7.8152943772789025e-05 0.0000000000000000e+00  4.4799188045877840e-02 5.7327955570256388e-05 0.0000000000000000e+00  3.7366626354731454e-04 4.7106560723697802e-02 0.0000000000000000e+00  4.5163192163029303e-02 6.9433578012480582e-04 0.0000000000000000e+00  5.4183708290874519e-05 -4.7745570761097852e-02 0.0000000000000000e+00  3.9310710709047794e-05 4.7756980174218533e-02 0.0000000000000000e+00  4.7624001832709636e-02 3.1567142251524963e-05 0.0000000000000000e+00  -4.7707718959940110e-02 8.9816403522719412e-05 0.0000000000000000e+00  -4.3925072145951739e-02 3.8895729069401893e-04 0.0000000000000000e+00  -3.6665861931500082e-04 -4.7021988274848880e-02 0.0000000000000000e+00  -2.9529540642990102e-04 -4.3552603762660194e-02 0.0000000000000000e+00  -4.7057577827090795e-02 8.4425354444575876e-04 0.0000000000000000e+00  4.7796572794725364e-02 3.3759258621065135e-05 0.0000000000000000e+00  1.8797998965760007e-05 4.7745904782700313e-02 0.0000000000000000e+00  4.7051109949959445e-02 7.0596183857799043e-04 0.0000000000000000e+00  -5.6615761716397863e-03 2.9606888204598537e-02 0.0000000000000000e+00  0.0000000000000000e+00 0.0000000000000000e+00 0.0000000000000000e+00  0.0000000000000000e+00 0.0000000000000000e+00 0.0000000000000000e+00  0.0000000000000000e+00 0.0000000000000000e+00 0.0000000000000000e+00  -1.3015308176036188e-05 4.7772345178699993e-02 0.0000000000000000e+00  3.9690691936426797e-05 4.7597222824288625e-02 0.0000000000000000e+00  5.1293252753147830e-05 -4.7641951149346620e-02 0.0000000000000000e+00  -4.7644554405508507e-02 8.7873089542385836e-06 0.0000000000000000e+00  0.0000000000000000e+00 0.0000000000000000e+00 0.0000000000000000e+00  -2.0601123830199914e-05 -4.7730080644557069e-02 0.0000000000000000e+00  0.0000000000000000e+00 0.0000000000000000e+00 0.0000000000000000e+00  -4.3474095956950121e-02 -2.8170554095252370e-05 0.0000000000000000e+00  -7.4274441046385829e-05 -4.7676473846094962e-02 0.0000000000000000e+00  -3.5612278140690645e-03 4.4118567876170939e-02 0.0000000000000000e+00  -5.4667098912624251e-03 4.6487195087928333e-02 0.0000000000000000e+00  -4.7848875256588895e-02 6.4096426720738996e-06 0.