<?xml version="1.0"?>
<VTKFile type="UnstructuredGrid"  version="0.1"  >
<UnstructuredGrid>
<Piece  NumberOfPoints="778" NumberOfCells="1401">
<Points>
<DataArray  type="Float64"  NumberOfComponents="3"  format="ascii">1 -1 0  6 -1 0  6 1 0  1 1 0  1 6 0  -1 6 0  -1 1 0  -6 1 0  -6 -1 0  -1 -1 0  -1 -6 0  1 -6 0  1 3.5 0  -1 3.5 0  -1 -3.5 0  1 -3.5 0  3.5 -1 0  3.5 1 0  -3.5 -1 0  -3.5 1 0  -1 -2.25 0  1 -2.25 0  2.25 -1 0  2.25 1 0  -1 2.25 0  1 2.25 0  -1 4.75 0  1 4.75 0  -4.75 -1 0  -4.75 1 0  -2.25 1 0  -2.25 -1 0  1 -4.75 0  -1 -4.75 0  4.75 1 0  4.75 -1 0  0 0 0  -2.875 0 0  -1.625 0 0  -4.125 0 0  -6 0 0  0 2.875 0  2.875 0 0  0 6 0  1.625 0 0  0 -2.875 0  0 -1.625 0  0 1.625 0  0 4.125 0  0 -6 0  0 -4.125 0  4.125 0 0  6 0 0  -0.109375 5.0625 0  -5.0625 -0.109375 0  -0.109375 -5.0625 0  5.0625 0.109375 0  0.8125 -0.1875 0  -0.1875 -0.8125 0  -0.8125 0.1875 0  -0.1875 0.8125 0  1 5.375 0  -5.375 1 0  1 -5.375 0  5.375 -1 0  0.53515625 0.46484375 0  -5.375 -1 0  -1 5.375 0  -1 -5.375 0  -0.5 -6 0  5.375 1 0  6 0.5 0  3.5 0.3046875 0  3.43125 -0.34765625 0  2.875 -1 0  4.125 1 0  0.3046875 3.5 0  -0.34765625 3.56875 0  -1 4.125 0  1 4.125 0  -0.3046875 2.25 0  0.34765625 2.18125 0  1 1.625 0  -1 -1.625 0  -0.3046875 -3.5 0  0.34765625 -3.56875 0  1 -4.125 0  0.3046875 -2.25 0  -0.34765625 -2.18125 0  -1 -4.125 0  -1 -2.875 0  1 -2.875 0  1 -1.625 0  1.625 -1 0  1.625 1 0  2.25 0.3046875 0  2.18125 -0.34765625 0  4.125 -1 0  2.875 1 0  1 2.875 0  -1 1.625 0  -1 2.875 0  -4.125 -1 0  -2.25 0.3046875 0  -2.31875 -0.34765625 0  -2.875 -1 0  -1.625 1 0  -4.125 1 0  -3.5 0.3046875 0  -3.56875 -0.34765625 0  -1.625 -1 0  -2.875 1 0  0.380626321794301 1.06853329530276 0  -1.110819327731092 -0.3739495798319328 0  0.3739495798319328 -1.110819327731092 0  1.151210293219304 0.3991939332620648 0  -0.5 -4.4375 0  0.5 -4.4375 0  5.481553398058253 -0.3712833737864077 0  0.5 4.4375 0  0.5 6 0  -0.522503783594538 -0.3265648647465863 0  -1.3125 0.5 0  -0.5 6 0  0.3265648647465863 -0.522503783594538 0  4.4375 0.5 0  4.4375 -0.5 0  0.5 -6 0  -6 -0.5 0  -5.481553398058253 0.3712833737864077 0  -4.55 -0.4296875 0  -4.4375 0.5 0  -0.5 4.4375 0  0.4792930825242718 5.026881067961165 0  0.4792930825242718 -5.026881067961165 0  -0.5 1.3125 0  1.3125 -0.5 0  -0.5 -1.3125 0  0.25 5.518539952962044 0  0.2125133872612723 -5.500076563152851 0  4.969341874373811 -0.5152550785163683 0  -4.969341874373811 0.5152550785163683 0  3.927189744345589 -0.4712876597840069 0  -5.554036458333333 -0.25 0  5.554036458333333 0.25 0  -0.4690710616438356 -5.462756849315069 0  -0.4690710616438356 5.462756849315069 0  -6 0.5 0  -1.59556436210848 -0.5 0  -3.058421751829955 -0.5 0  -0.5 2.731982421875 0  0.5 2.691578248170045 0  2.691578248170045 -0.5 0  1.641211254104555 0.5 0  0.5 -1.768017578125 0  0.5 -3.058421751829955 0  0.5 1.699267578125 0  3.018017578125 0.5 0  -0.5 -3.018017578125 0  -2.731982421875 0.5 0  6 -0.5 0  -4.050017120925308 -0.5006099332648871 0  -3.940668202764977 0.5371363767281105 0  3.940668202764977 0.5371363767281105 0  0.4517449476047904 3.958458083832335 0  -0.4517449476047904 -3.958458083832335 0  -1.809331797235023 0.5371363767281105 0  -0.4517449476047904 1.791541916167665 0  -0.0546875 4.59375 0  -5.006445312499999 -0.58984375 0  4.605643203883496 -0.04725424757281554 0  4.90625 0.5546875 0  -0.5546875 4.90625 0  0.04725424757281554 -4.605643203883496 0  -0.586116118210531 -4.995821561900013 0  -4.603710222472543 0.04846236095466061 0  -3.1875 0.65234375 0  0.6163907621110913 3.147502300973589 0  2.5625 0.65234375 0  0.6163907621110913 -2.602497699026411 0  -0.637456713551384 3.189259902731882 0  -0.637456713551384 -2.560740097268118 0  -0.34765625 0.34765625 0  -0.639453125 0.708203125 0  0.089630126953125 0.437286376953125 0  -0.4238281249999999 -1.746875 0  1.746875 -0.4238281249999999 0  -0.4238281249999999 4.003125 0  0.4238281249999999 -4.003125 0  -2.5625 -1 0  3.1875 -1 0  -0.09375 -1.21875 0  1.21875 -0.09375 0  0.4020305405760241 -0.1120343241705621 0  -0.6280191027904287 -0.7577505545748082 0  0.90625 -0.59375 0  -1.205500904741459 0.03633725387965409 0  -0.02129048848213058 1.202028574265107 0  -0.1120343241705621 -0.4020305405760241 0  1 1.3125 0  -2.003587563743074 -0.6442361556699288 0  0.6640077663259718 -1.395873598614549 0  5.6875 -1 0  0.6308138580859101 -5.592151086468728 0  -5.6875 -1 0  0.6568032075915271 5.612942566073222 0  5.616530031741774 0.6612875396772174 0  -5.6875 1 0  1.9375 1 0  -1.3125 -1 0  0.1524679547155687 -3.232579139388032 0  0.1524679547155687 2.517420860611968 0  -3.232579139388032 -0.1524679547155687 0  -1.932320553757026 -0.252759244693845 0  2.517420860611968 -0.1524679547155687 0  -0.04776045819569434 -2.464949198504599 0  -0.2420369079104247 3.187693796852321 0  3.751304711039982 -0.1203080877045035 0  -5.397601941771943 -0.609026059866711 0  1.3125 1 0  1.9375 -1 0  -0.6946315101963667 -2.018229242739021 0  -0.6946315101963667 3.731770757260979 0  1 -3.8125 0  2.014364435550335 0.6166648446293641 0  -1 5.6875 0  -1 -5.6875 0  -2.653476149871182 -0.5942957192996303 0  3.096523850128818 -0.5942957192996303 0  1 1.9375 0  -3.8125 -1 0  0.586975531244212 -0.7975955463807081 0  -0.2946248980953088 -4.743710873809568 0  2.625453376770019 0.2814788818359375 0  -3.124546623229981 0.2814788818359375 0  -0.1204856417894853 5.631800603217465 0  5.253862011026742 0.6581468962876398 0  -0.65234375 2.108701557941197 0  0.65234375 3.641298442058803 0  -0.65234375 -3.641298442058803 0  -0.25 -5.744880569758637 0  -4.4375 -1 0  -0.3166212631734941 -2.713595940002554 0  0.6591479224207506 0.1324305912687024 0  0.8660781906552419 0.6468634238104103 0  -0.9887189158197679 0.6452930723873549 0  0.3149351927204296 -1.460971774996065 0  -0.3572852727880474 -0.009629022788047503 0  2.09375 -0.6866724363772454 0  0.6866724363772454 -3.65625 0  0.6866724363772454 2.09375 0  -3.65625 -0.6866724363772454 0  -3.5371337890625 0.65234375 0  -0.1389584113023952 1.944025352615082 0  -2.151744288472698 0.65234375 0  -0.1389584113023951 -3.805974647384918 0  0.1389584113023951 3.805974647384918 0  -2.578772109813904 0.1857224367977529 0  3.171227890186096 0.1857224367977529 0  3.360315647536819 0.65234375 0  0.1857224367977528 -1.921227890186096 0  0.65234375 -2.110315647536819 0  1.894016528727564 0.2415406141485869 0  -3.738232421875 0 0  0.2516875549238616 3.139069895099618 0  -1.913724396854074 0.2011142179916434 0  0.1669456568161915 0.7843410671359501 0  -2.5625 1 0  -1 -3.1875 0  -1 2.5625 0  0.1736601499778735 4.857955663330752 0  -0.1893536587212888 2.577300639071919 0  -0.1893536587212888 -3.172699360928081 0  3.852271904453858 0.206603749322895 0  -3.8125 1 0  -0.1250095034621793 -5.421707592768541 0  3.8125 -1 0  3.617304217264373 -0.6578427703661498 0  0.2630176195580202 -2.636558318495885 0  0.2674330357770522 1.399517071108871 0  0.631726413079416 1.339254523727593 0  4.700571879807737 0.2813704945051134 0  0.7143844363649634 -3.319538455208831 0  2.430461544791169 -0.7143844363649634 0  0.7143844363649634 2.430461544791169 0  -3.319538455208831 -0.7143844363649634 0  5.687045771608623 -0.6520598572553891 0  -5.687045771608623 0.6520598572553891 0  -1.15625 -0.7048248829733235 0  3.438284572973296 -0.01860298867862281 0  -0.03021088078697859 3.451572359862192 0  2.216682837011589 -0.02159585961918548 0  -2.191580885932936 -0.03126387444658879 0  0.1857410764408683 1.895679405349457 0  3.103473238297955 -0.253270943723272 0  -2.646526761702045 -0.253270943723272 0  -2.333137350671861 -0.6791984914172315 0  -1 5.0625 0  -0.6971235589909319 5.213002544375844 0  0.01618705363819947 2.225929180591695 0  0.01618705363819947 -3.524070819408305 0  0.5690054882403073 0.7951310720450595 0  -0.5764940424412852 -3.329579265180942 0  -0.5764940424412852 2.420420734819058 0  3.8125 1 0  -5.372163860234628 0.04365139563106807 0  5.164108319316826 -0.225040894204947 0  -5.361952437854323 0.6744012088984681 0  -5.0625 1 0  5.286835586913878 -0.6616705837083201 0  -5.692815197359722 0.1186699900166531 0  5.663425996156958 -0.07763197815533956 0  -0.9219866027132193 -0.1143045829323572 0  -1.394333629759332 -0.2233077430199216 0  0.09322478991596644 -0.9616596638655462 0  5.0625 -1 0  -0.14412109375 -1.92169189453125 0  -4.28125 -0.7212148987671345 0  0.2649796277366407 0.1735162902120744 0  -4.907855692236596 0.1868230509619793 0  -1.9375 1 0  1 5.0625 0  0.6915124486819284 -5.272938212550202 0  0.683483242673902 5.284948082526911 0  2.5625 -1 0  -1 -3.8125 0  -1 1.9375 0  5.0625 1 0  -1 -1.9375 0  1 5.6875 0  1 -5.6875 0  -1.9375 -1 0  -1 -2.5625 0  -1 3.1875 0  1 -3.1875 0  1 -2.5625 0  1 2.5625 0  1 3.1875 0  -5.0625 -1 0  -1 -1.3125 0  1.3125 -1 0  -1 1.3125 0  -1 3.8125 0  -1 4.4375 0  -4.4375 1 0  4.4375 -1 0  4.4375 1 0  -1.3125 1 0  1 4.4375 0  1 -4.4375 0  -1 -5.0625 0  -1 -4.4375 0  -3.1875 1 0  2.5625 1 0  1 -1.9375 0  1 -1.3125 0  5.6875 1 0  1 3.8125 0  3.1875 1 0  -3.1875 -1 0  1 -5.0625 0  1.35138038998199 0.6675097549271188 0  -0.465625 0.986328125 0  1.435958105992309 0.2563920171199723 0  1.915914614192913 -0.145782394639918 0  -0.8764440609469509 -0.5746869313612541 0  5.355194559946098 0.01566259380337612 0  -5.69333042954964 -0.5242868300459975 0  1.78125 -0.7320750794491524 0  0.7320750794491525 -3.96875 0  -0.3959075548864684 5.166422468926435 0  -4.770522389068053 -0.2123670725088856 0  -4.714160156249999 -0.69234375 0  -4.273484403713342 -0.278160994327167 0  0.9642590244517505 0.08196089404241463 0  0.3500261717645397 -4.727285205957206 0  0.6740868006020392 -4.765147848348443 0  0.6797550207247084 -1.089747806381148 0  -5.186479934354063 0.3046329157552757 0  -5.263288238215326 -0.3369092276308425 0  -2.433484016245305 0.5442571297016638 0  0.1707808983307866 -3.82363304980935 0  -0.1554012991031027 3.867535742674252 0  4.855508096805579 -0.2283975605264581 0  3.644517238097614 0.5646428152488787 0  0.05699603874439441 -0.6452791208413911 0  -0.3550018917972689 -0.5695324323732931 0  0.6
[...]
<PointData  Vectors="u"> 
<DataArray  type="Float64"  Name="u"  NumberOfComponents="3" format="ascii">0.0000000000000000e+00 0.0000000000000000e+00 0.0000000000000000e+00  0.0000000000000000e+00 0.0000000000000000e+00 0.0000000000000000e+00  0.0000000000000000e+00 0.0000000000000000e+00 0.0000000000000000e+00  0.0000000000000000e+00 0.0000000000000000e+00 0.0000000000000000e+00  0.0000000000000000e+00 0.0000000000000000e+00 0.0000000000000000e+00  0.0000000000000000e+00 0.0000000000000000e+00 0.0000000000000000e+00  0.0000000000000000e+00 0.0000000000000000e+00 0.0000000000000000e+00  0.0000000000000000e+00 0.0000000000000000e+00 0.0000000000000000e+00  0.0000000000000000e+00 0.0000000000000000e+00 0.0000000000000000e+00  0.0000000000000000e+00 0.0000000000000000e+00 0.0000000000000000e+00  0.0000000000000000e+00 0.0000000000000000e+00 0.0000000000000000e+00  0.0000000000000000e+00 0.0000000000000000e+00 0.0000000000000000e+00  0.0000000000000000e+00 0.0000000000000000e+00 0.0000000000000000e+00  0.0000000000000000e+00 0.0000000000000000e+00 0.0000000000000000e+00  0.0000000000000000e+00 0.0000000000000000e+00 0.0000000000000000e+00  0.0000000000000000e+00 0.0000000000000000e+00 0.0000000000000000e+00  0.0000000000000000e+00 0.0000000000000000e+00 0.0000000000000000e+00  0.0000000000000000e+00 0.0000000000000000e+00 0.0000000000000000e+00  0.0000000000000000e+00 0.0000000000000000e+00 0.0000000000000000e+00  0.0000000000000000e+00 0.0000000000000000e+00 0.0000000000000000e+00  0.0000000000000000e+00 0.0000000000000000e+00 0.0000000000000000e+00  0.0000000000000000e+00 0.0000000000000000e+00 0.0000000000000000e+00  0.0000000000000000e+00 0.0000000000000000e+00 0.0000000000000000e+00  0.0000000000000000e+00 0.0000000000000000e+00 0.0000000000000000e+00  0.0000000000000000e+00 0.0000000000000000e+00 0.0000000000000000e+00  0.0000000000000000e+00 0.0000000000000000e+00 0.0000000000000000e+00  0.0000000000000000e+00 0.0000000000000000e+00 0.0000000000000000e+00  0.0000000000000000e+00 0.0000000000000000e+00 0.0000000000000000e+00  0.0000000000000000e+00 0.0000000000000000e+00 0.0000000000000000e+00  0.0000000000000000e+00 0.0000000000000000e+00 0.0000000000000000e+00  0.0000000000000000e+00 0.0000000000000000e+00 0.0000000000000000e+00  0.0000000000000000e+00 0.0000000000000000e+00 0.0000000000000000e+00  0.0000000000000000e+00 0.0000000000000000e+00 0.0000000000000000e+00  0.0000000000000000e+00 0.0000000000000000e+00 0.0000000000000000e+00  0.0000000000000000e+00 0.0000000000000000e+00 0.0000000000000000e+00  0.0000000000000000e+00 0.0000000000000000e+00 0.0000000000000000e+00  -1.9455120166086149e-04 1.0288391580501613e-04 0.0000000000000000e+00  5.7775451035050981e-02 -1.0860002476874176e-05 0.0000000000000000e+00  5.5257869918088863e-02 5.4785242180490815e-05 0.0000000000000000e+00  5.7846019259869992e-02 4.4855925576220600e-06 0.0000000000000000e+00  5.7916731429634237e-02 3.7773149595775931e-05 0.0000000000000000e+00  1.3543896100198998e-05 5.7771813081715383e-02 0.0000000000000000e+00  -5.7688306737096309e-02 4.4872685986396986e-05 0.0000000000000000e+00  4.1298558257738698e-05 5.7693128955814278e-02 0.0000000000000000e+00  -5.5360369007348607e-02 1.2030879007519570e-04 0.0000000000000000e+00  5.6906203230643266e-06 -5.7729372222714070e-02 0.0000000000000000e+00  -2.3223930556164510e-06 -5.5229102684891326e-02 0.0000000000000000e+00  4.3447507811329437e-05 5.5163122894399001e-02 0.0000000000000000e+00  3.4942028305112850e-05 5.7722413930567235e-02 0.0000000000000000e+00  4.4425709144392523e-05 -5.7706515055773691e-02 0.0000000000000000e+00  7.2481333884899396e-05 -5.7790772184518759e-02 0.0000000000000000e+00  -5.7853581457887028e-02 -2.3477627609359725e-05 0.0000000000000000e+00  -5.7836241778718954e-02 -5.0291000865678226e-05 0.0000000000000000e+00  -7.1817734451481939e-05 5.7853469719500263e-02 0.0000000000000000e+00  5.7805825207108773e-02 -8.0872104790462719e-05 0.0000000000000000e+00  -8.7373711005166505e-05 -5.7639103004669102e-02 0.0000000000000000e+00  -5.7747094049659109e-02 -7.1048170636568787e-05 0.0000000000000000e+00  -3.7540743673243789e-02 -7.7126653635117065e-03 0.0000000000000000e+00  7.5615638598904413e-03 -3.7097114120371658e-02 0.0000000000000000e+00  3.6974912097161292e-02 7.6062953068358023e-03 0.0000000000000000e+00  7.7460546194949341e-03 3.7155654739039319e-02 0.0000000000000000e+00  0.0000000000000000e+00 0.0000000000000000e+00 0.0000000000000000e+00  0.0000000000000000e+00 0.0000000000000000e+00 0.0000000000000000e+00  0.0000000000000000e+00 0.0000000000000000e+00 0.0000000000000000e+00  0.0000000000000000e+00 0.0000000000000000e+00 0.0000000000000000e+00  -2.5878522809148329e-02 2.1894938901898576e-02 0.0000000000000000e+00  0.0000000000000000e+00 0.0000000000000000e+00 0.0000000000000000e+00  0.0000000000000000e+00 0.0000000000000000e+00 0.0000000000000000e+00  0.0000000000000000e+00 0.0000000000000000e+00 0.0000000000000000e+00  5.3189635414813466e-05 -5.5128020485002288e-02 0.0000000000000000e+00  0.0000000000000000e+00 0.0000000000000000e+00 0.0000000000000000e+00  -5.7538975688011758e-02 -2.9066400538628697e-06 0.0000000000000000e+00  -5.8000149108207465e-02 6.0247125897167048e-05 0.0000000000000000e+00  -5.7874733221500441e-02 2.8387597437099685e-05 0.0000000000000000e+00  0.0000000000000000e+00 0.0000000000000000e+00 0.0000000000000000e+00  0.0000000000000000e+00 0.0000000000000000e+00 0.0000000000000000e+00  3.7045799316383713e-05 5.7755028203484750e-02 0.0000000000000000e+00  6.0058092250919497e-07 5.7879341191122563e-02 0.0000000000000000e+00  0.0000000000000000e+00 0.0000000000000000e+00 0.0000000000000000e+00  0.0000000000000000e+00 0.0000000000000000e+00 0.0000000000000000e+00  2.6872071749935796e-04 5.7562943546964618e-02 0.0000000000000000e+00  -3.9055013360775608e-04 5.7595194027483199e-02 0.0000000000000000e+00  0.0000000000000000e+00 0.0000000000000000e+00 0.0000000000000000e+00  0.0000000000000000e+00 0.0000000000000000e+00 0.0000000000000000e+00  3.4669121809751735e-05 -5.7774277719352590e-02 0.0000000000000000e+00  1.7530400827360991e-05 -5.7791822884615311e-02 0.0000000000000000e+00  0.0000000000000000e+00 0.0000000000000000e+00 0.0000000000000000e+00  -2.3825639959947304e-04 -5.7531049566582421e-02 0.0000000000000000e+00  4.8409437824926493e-04 -5.7673175178030764e-02 0.0000000000000000e+00  0.0000000000000000e+00 0.0000000000000000e+00 0.0000000000000000e+00  0.0000000000000000e+00 0.0000000000000000e+00 0.0000000000000000e+00  0.0000000000000000e+00 0.0000000000000000e+00 0.0000000000000000e+00  0.0000000000000000e+00 0.0000000000000000e+00 0.0000000000000000e+00  0.0000000000000000e+00 0.0000000000000000e+00 0.0000000000000000e+00  0.0000000000000000e+00 0.0000000000000000e+00 0.0000000000000000e+00  -5.7578763653118363e-02 3.4855878467232257e-04 0.0000000000000000e+00  -5.7545216413621182e-02 -3.6282286104764958e-04 0.0000000000000000e+00  0.0000000000000000e+00 0.0000000000000000e+00 0.0000000000000000e+00  0.0000000000000000e+00 0.0000000000000000e+00 0.0000000000000000e+00  0.0000000000000000e+00 0.0000000000000000e+00 0.0000000000000000e+00  0.0000000000000000e+00 0.0000000000000000e+00 0.0000000000000000e+00  0.0000000000000000e+00 0.0000000000000000e+00 0.0000000000000000e+00  0.0000000000000000e+00 0.0000000000000000e+00 0.0000000000000000e+00  5.7741350917081317e-02 3.5669100248679649e-04 0.0000000000000000e+00  5.7817310741705097e-02 -3.4501830622708524e-04 0.0000000000000000e+00  0.0000000000000000e+00 0.0000000000000000e+00 0.0000000000000000e+00  0.0000000000000000e+00 0.0000000000000000e+00 0.0000000000000000e+00  0.0000000000000000e+00 0.0000000000000000e+00 0.0000000000000000e+00  5.7704526529047583e-02 9.8163267589659187e-05 0.0000000000000000e+00  5.7834372118479645e-02 2.5021176175874863e-05 0.0000000000000000e+00  0.0000000000000000e+00 0.0000000000000000e+00 0.0000000000000000e+00  0.0000000000000000e+00 0.0000000000000000e+00 0.0000000000000000e+00  -1.0722742113438679e-02 4.9045087409372017e-02 0.0000000000000000e+00  5.0376599542055346e-02 -1.0418526190389875e-02 0.0000000000000000e+00  -9.9792436871047451e-03 -5.0842048492135118e-02 0.0000000000000000e+00  -5.1488788240212115e-02 9.4196071230900225e-03 0.0000000000000000e+00  3.4082891590121770e-05 -5.5121424149357508e-02 0.0000000000000000e+00  8.8305723917314832e-07 -5.7833712171304230e-02 0.0000000000000000e+00  -5.7924169727151975e-02 -8.4002399926486431e-05 0.0000000000000000e+00  4.6646726969378269e-06 5.7720197325784643e-02 0.0000000000000000e+00  3.9863104658359603e-05 5.7738760716109956e-02 0.0000000000000000e+00  2.4549792926079863e-02 -1.5307093485303944e-02 0.0000000000000000e+00  5.5984565035506556e-02 7.7700108862781784e-03 0.0000000000000000e+00  1.1001536470398790e-05 5.5129829919580993e-02 0.0000000000000000e+00  -1.4830378168739809e-02 -2.4560905208721943e-02 0.0000000000000000e+00  -5.7773923640470674e-02 -5.9456348342512029e-05 0.0000000000000000e+00  -5.7857935793531275e-02 4.5607843642116550e-06 0.0000000000000000e+00  2.0349000166349225e-05 -5.7751594902003899e-02 0.0000000000000000e+00  5.7949208161609297e-02 -4.2477684172527541e-06 0.0000000000000000e+00  5.7824559939008979e-02 5.5898193981799264e-05 0.0000000000000000e+00  5.7960078932503385e-02 7.0233502533134897e-06 0.0000000000000000e+00  5.4948451389117199e-02 -1.5201785211241399e-05 0.0000000000000000e+00  9.9198015876740377e-06 5.7599477541718867e-02 0.0000000000000000e+00  -3.0450637477989390e-05 5.7874028345009244e-02 0.0000000000000000e+00  -3.3463721076913580e-05 -5.7817524268581444e-02 0.0000000000000000e+00  8.1778359851269085e-03 5.7349966514162895e-02 0.0000000000000000e+00  -5.6519244777412582e-02 -7.6566710690918298e-03 0.0000000000000000e+00  7.8185939996828022e-03 -5.6086070339995311e-02 0.0000000000000000e+00  3.5484477713845296e-05 5.7754567003637028e-02 0.0000000000000000e+00  -2.6685500068514087e-05 -5.7816269760468664e-02 0.0000000000000000e+00  -5.7908850866778883e-02 -5.6273383596441891e-05 0.0000000000000000e+00  5.5629866529549793e-02 -4.5358222319108837e-06 0.0000000000000000e+00  -5.7800876709957968e-02 -3.2089620901834237e-05 0.0000000000000000e+00  5.7903346973226216e-02 -9.2706593312006177e-05 0.0000000000000000e+00  -5.7805895115482335e-02 -1.4781029928984807e-04 0.0000000000000000e+00  6.6308538513355215e-06 -5.7660051389036439e-02 0.0000000000000000e+00  2.3650138438918754e-05 5.7732491296360183e-02 0.0000000000000000e+00  5.6171682361418514e-02 1.2049193393619884e-04 0.0000000000000000e+00  5.7570662574128822e-02 -2.9624756994560139e-03 0.0000000000000000e+00  5.7868957568069361e-02 1.9277893552670487e-05 0.0000000000000000e+00  -1.1929473349302397e-05 5.7798466835885957e-02 0.0000000000000000e+00  -9.2970708632532508e-05 5.7710518182630670e-02 0.0000000000000000e+00  -5.7786587964422306e-02 -3.1053538760618030e-05 0.0000000000000000e+00  -5.7682949181405041e-02 2.8934258568620425e-03 0.0000000000000000e+00  -1.6617028799577030e-03 -5.7442642311093674e-02 0.0000000000000000e+00  -2.1410656191124851e-05 -5.7786712693039401e-02 0.0000000000000000e+00  -1.9608089531370611e-03 5.7790227072346975e-02 0.0000000000000000e+00  -5.7631514691489062e-02 9.4654017969918311e-05 0.0000000000000000e+00  1.1819148193897181e-04 -5.7714642793702225e-02 0.0000000000000000e+00  5.7886712251494332e-02 -8.8225535445017413e-07 0.0000000000000000e+00  -5.6076491911463848e-02 -6.5372839526642212e-05 0.0000000000000000e+00  5.7823598641450813e-02 -4.3131646418956175e-06 0.0000000000000000e+00  5.5717385671594885e-02 -1.9437703301379862e-04 0.0000000000000000e+00  -5.5691951539600687e-02 -4.1348685052861630e-04 0.0000000000000000e+00  2.3448486977968082e-05 5.7775784181440179e-02 0.0000000000000000e+00  8.7639567828569787e-05 -5.7802854555422563e-02 0.0000000000000000e+00  5.5412582250167632e-02 1.5220968876048233e-03 0.0000000000000000e+00  1.5912999531195941e-03 5.7168522851504346e-02 0.0000000000000000e+00  5.9519407084558564e-05 5.7765185774857335e-02 0.0000000000000000e+00  5.6238063185251430e-02 1.1502869752332408e-04 0.0000000000000000e+00  -5.7835951140079091e-02 -5.1280945415218524e-06 0.0000000000000000e+00  -5.2866649152709257e-02 8.0499626759397653e-05 0.0000000000000000e+00  7.4111063439418970e-05 5.1868116749588612e-02 0.0000000000000000e+00  -1.4277605134221107e-05 -5.7859799310099880e-02 0.0000000000000000e+00  -2.3246789723003886e-04 -5.2498051275778175e-02 0.0000000000000000e+00  5.7867295265563432e-02 -4.3602939843155158e-05 0.0000000000000000e+00  5.2667984114094166e-02 1.3845660705415425e-04 0.0000000000000000e+00  4.3199633426579645e-05 5.3411373752257109e-02 0.0000000000000000e+00  -5.7076279489716580e-02 2.9650666931758853e-04 0.0000000000000000e+00  -2.1970813081341375e-04 -5.3315866381781998e-02 0.0000000000000000e+00  2.5916261876024856e-04 5.3992018618836096e-02 0.0000000000000000e+00  -1.1328469607022218e-04 -5.4256003843622919e-02 0.0000000000000000e+00  1.6200020306167080e-02 1.6006882557918635e-02 0.0000000000000000e+00  3.1025299697268548e-02 3.5667338165063601e-02 0.0000000000000000e+00  -4.1867219588879821e-03 2.0308261382359180e-02 0.0000000000000000e+00  1.9260699005296310e-03 -5.7200412265863615e-02 0.0000000000000000e+00  -5.7015560707251257e-02 -1.7711036575945595e-03 0.0000000000000000e+00  -2.3131818151423769e-05 5.7698310405543421e-02 0.0000000000000000e+00  -6.5852354215094036e-06 -5.7798906909127132e-02 0.0000000000000000e+00  0.0000000000000000e+00 0.0000000000000000e+00 0.0000000000000000e+00  0.0000000000000000e+00 0.0000000000000000e+00 0.0000000000000000e+00  2.5128042054519155e-03 -4.9703407303540746e-02 0.0000000000000000e+00  -4.9616991755192984e-02 -1.7756947659374378e-03 0.0000000000000000e+00  -1.8896646149411944e-02 -4.9706079217930197e-03 0.0000000000000000e+00  3.0672599483690111e-02 -4.0285117662136681e-02 0.0000000000000000e+00  -5.0157813460878282e-02 -2.3514674039445096e-02 0.0000000000000000e+00  4.9377633558281314e-02 1.1859836680138040e-03 0.0000000000000000e+00  5.0195926467311758e-04 4.9024453118645187e-02 0.0000000000000000e+00  5.0944026491253390e-03 -1.8716670952188180e-02 0.0000000000000000e+00  0.0000000000000000e+00 0.0000000000000000e+00 0.0000000000000000e+00  5.4256146007245466e-02 -8.2408721108162748e-04 0.0000000000000000e+00  -4.3323343845262895e-03 -5.7892951752622136e-02 0.0000000000000000e+00  0.0000000000000000e+00 0.0000000000000000e+00 0.0000000000000000e+00  2.2467353423841479e-04 -5.4239759157973057e-02 0.0000000000000000e+00  0.0000000000000000e+00 0.0000000000000000e+00 0.0000000000000000e+00  3.1061349460122998e-04 5.4823474338578898e-02 0.0000000000000000e+00  -5.4974051833256002e-02 -4.7207201472679663e-04 0.0000000000000000e+00  0.0000000000000000e+00 0.0000000000000000e+00 0.0000000000000000e+00  0.0000000000000000e+00 0.0000000000000000e+00 0.0000000000000000e+00  0.0000000000000000e+00 0.0000000000000000e+00 0.0000000000000000e+00  3.7827289475357234e-05 -5.7749533907641253e-02 0.0000000000000000e+00  -7.7899643931953394e-05 5.7666367896039940e-02 0.0000000000000000e+00  5.7795722481206367e-02 1.5744791410252453e-05 0.0000000000000000e+00  5.7178114457555919e-02 -7.8435961347472880e-04 0.0000000000000000e+00  -5.7606597522452216e-02 -4.2391949286817049e-05 0.0000000000000000e+00  3.8399201730238602e-05 -5.7684530192642337e-02 0.0000000000000000e+00  8.3107810649815208e-05 5.7855960721065351e-02 0.0000000000000000e+00  -5.7877863102897734e-02 8.3532613364118864e-06 0.0000000000000000e+00  5.3546043356548771e-02 4.1071157427995523e-06 0.0000000000000000e+00  0.0000000000000000e+00 0.0000000000000000e+00 0.0000000000000000e+00  0.0000000000000000e+00 0.0000000000000000e+00 0.0000000000000000e+00  1.0138095201702344e-03 -5.5250881536500047e-02 0.0000000000000000e+00  -3.0511984102106504e-04 5.5430834880141881e-02 0.0000000000000000e+00  0.0000000000000000e+00 0.0000000000000000e+00 0.0000000000000000e+00  -5.6565544707977949e-02 6.2143644340696658e-04 0.0000000000000000e+00  0.0000000000000000e+00 0.0000000000000000e+00 0.0000000000000000e+00  0.0000000000000000e+00 0.0000000000000000e+00 0.0000000000000000e+00  5.6384885324932417e-02 2.1771117735861162e-04 0.0000000000000000e+00  -5.6001058226984438e-02 -5.1419672112994177e-05 0.0000000000000000e+00  0.0000000000000000e+00 0.0000000000000000e+00 0.0000000000000000e+00  0.0000000000000000e+00 0.0000000000000000e+00 0.0000000000000000e+00  -2.7112649790113606e-02 -4.2724009181582596e-02 0.0000000000000000e+00  -9.7397192931845375e-05 -5.7931315976893251e-02 0.0000000000000000e+00  -5.7663772586646865e-02 1.1492758680007783e-04 0.0000000000000000e+00  5.7789348540427117e-02 -1.7347932413294952e-05 0.0000000000000000e+00  5.2647705337855619e-05 5.7782419600328629e-02 0.0000000000000000e+00  -5.5471607620410021e-02 -2.3344563442220380e-04 0.0000000000000000e+00  2.8450000374229828e-04 5.5188123853192522e-02 0.0000000000000000e+00  -1.4341236797446829e-04 5.4208844701084578e-02 0.0000000000000000e+00  1.8686902737372928e-04 -5.4791812755708880e-02 0.0000000000000000e+00  6.9481386029661885e-05 -5.7750778735274066e-02 0.0000000000000000e+00  0.0000000000000000e+00 0.0000000000000000e+00 0.0000000000000000e+00  7.4752435587606219e-06 -5.7779106613906978e-02 0.0000000000000000e+00  -3.0416668203223272e-02 5.9040423438937650e-03 0.0000000000000000e+00  -4.5437754264076265e-02 3.0241584293821178e-02 0.0000000000000000e+00  5.2907581152066605e-02 2.4194888418238296e-02 0.0000000000000000e+00  -3.7204866095689026e-03 -5.4730607977015379e-02 0.0000000000000000e+00  1.6476342106827208e-02 -1.5798733601647824e-04 0.0000000000000000e+00  -5.5440081830770017e-02 -4.6060606785963096e-04 0.0000000000000000e+00  1.8438713536582835e-05 -5.5223281671420571e-02 0.0000000000000000e+00  -4.8134682892442710e-04 5.5410463163994818e-02 0.0000000000000000e+00  5.4980917606016921e-02 1.0651393488837374e-04 0.0000000000000000e+00  5.5645799691851704e-02 9.8663149826898948e-05 0.0000000000000000e+00  4.3540842879336884e-04 5.7055108023479767e-02 0.0000000000000000e+00  5.6215000158476303e-02 7.6436221541487104e-04 0.0000000000000000e+00  5.6775279031990375e-05 -5.7767150038411055e-02 0.0000000000000000e+00  4.3584029325632893e-05 5.7781495322116690e-02 0.0000000000000000e+00  5.7708574477298970e-02 2.6637692740409228e-05 0.0000000000000000e+00  -5.7708485831040240e-02 1.1099648768786427e-04 0.0000000000000000e+00  -5.4719787785725046e-02 5.0116148862383808e-04 0.0000000000000000e+00  -4.3754246104436064e-04 -5.6949708886015665e-02 0.0000000000000000e+00  -3.1824114670075010e-04 -5.4221857007323397e-02 0.0000000000000000e+00  -5.7008739433354952e-02 9.5232373294726694e-04 0.0000000000000000e+00  5.7831539860880854e-02 3.5391426030005857e-05 0.0000000000000000e+00  2.4399833398912152e-05 5.7840133142609523e-02 0.0000000000000000e+00  5.6993815779135940e-02 7.9940432675289165e-04 0.0000000000000000e+00  -6.9133414649622691e-03 3.6070216531151000e-02 0.0000000000000000e+00  0.0000000000000000e+00 0.0000000000000000e+00 0.0000000000000000e+00  0.0000000000000000e+00 0.0000000000000000e+00 0.0000000000000000e+00  0.0000000000000000e+00 0.0000000000000000e+00 0.0000000000000000e+00  -1.3062939932016110e-05 5.7792646325193112e-02 0.0000000000000000e+00  4.7797931411053160e-05 5.7631699170850634e-02 0.0000000000000000e+00  5.5404295368835429e-05 -5.7658913476577658e-02 0.0000000000000000e+00  -5.7798075169240321e-02 3.0363911410491905e-05 0.0000000000000000e+00  0.0000000000000000e+00 0.0000000000000000e+00 0.0000000000000000e+00  -3.0532455073869611e-05 -5.7737212597857551e-02 0.0000000000000000e+00  0.0000000000000000e+00 0.0000000000000000e+00 0.0000000000000000e+00  -5.3991208068224099e-02 -1.2787878892571432e-05 0.0000000000000000e+00  -7.7358508177064516e-05 -5.7745137863602400e-02 0.0000000000000000e+00  -4.1212214075355734e-03 5.3698603680485645e-02 0.0000000000000000e+00  -5.8896120679097453e-03 5.6527522832202817e-02 0.0000000000000000e+00  -5.7943124502530086e-02 8.0875974163358115e-06