<?xml version="1.0"?>
<VTKFile type="UnstructuredGrid"  version="0.1"  >
<UnstructuredGrid>
<Piece  NumberOfPoints="778" NumberOfCells="1401">
<Points>
<DataArray  type="Float64"  NumberOfComponents="3"  format="ascii">1 -1 0  6 -1 0  6 1 0  1 1 0  1 6 0  -1 6 0  -1 1 0  -6 1 0  -6 -1 0  -1 -1 0  -1 -6 0  1 -6 0  1 3.5 0  -1 3.5 0  -1 -3.5 0  1 -3.5 0  3.5 -1 0  3.5 1 0  -3.5 -1 0  -3.5 1 0  -1 -2.25 0  1 -2.25 0  2.25 -1 0  2.25 1 0  -1 2.25 0  1 2.25 0  -1 4.75 0  1 4.75 0  -4.75 -1 0  -4.75 1 0  -2.25 1 0  -2.25 -1 0  1 -4.75 0  -1 -4.75 0  4.75 1 0  4.75 -1 0  0 0 0  -2.875 0 0  -1.625 0 0  -4.125 0 0  -6 0 0  0 2.875 0  2.875 0 0  0 6 0  1.625 0 0  0 -2.875 0  0 -1.625 0  0 1.625 0  0 4.125 0  0 -6 0  0 -4.125 0  4.125 0 0  6 0 0  -0.109375 5.0625 0  -5.0625 -0.109375 0  -0.109375 -5.0625 0  5.0625 0.109375 0  0.8125 -0.1875 0  -0.1875 -0.8125 0  -0.8125 0.1875 0  -0.1875 0.8125 0  1 5.375 0  -5.375 1 0  1 -5.375 0  5.375 -1 0  0.53515625 0.46484375 0  -5.375 -1 0  -1 5.375 0  -1 -5.375 0  -0.5 -6 0  5.375 1 0  6 0.5 0  3.5 0.3046875 0  3.43125 -0.34765625 0  2.875 -1 0  4.125 1 0  0.3046875 3.5 0  -0.34765625 3.56875 0  -1 4.125 0  1 4.125 0  -0.3046875 2.25 0  0.34765625 2.18125 0  1 1.625 0  -1 -1.625 0  -0.3046875 -3.5 0  0.34765625 -3.56875 0  1 -4.125 0  0.3046875 -2.25 0  -0.34765625 -2.18125 0  -1 -4.125 0  -1 -2.875 0  1 -2.875 0  1 -1.625 0  1.625 -1 0  1.625 1 0  2.25 0.3046875 0  2.18125 -0.34765625 0  4.125 -1 0  2.875 1 0  1 2.875 0  -1 1.625 0  -1 2.875 0  -4.125 -1 0  -2.25 0.3046875 0  -2.31875 -0.34765625 0  -2.875 -1 0  -1.625 1 0  -4.125 1 0  -3.5 0.3046875 0  -3.56875 -0.34765625 0  -1.625 -1 0  -2.875 1 0  0.380626321794301 1.06853329530276 0  -1.110819327731092 -0.3739495798319328 0  0.3739495798319328 -1.110819327731092 0  1.151210293219304 0.3991939332620648 0  -0.5 -4.4375 0  0.5 -4.4375 0  5.481553398058253 -0.3712833737864077 0  0.5 4.4375 0  0.5 6 0  -0.522503783594538 -0.3265648647465863 0  -1.3125 0.5 0  -0.5 6 0  0.3265648647465863 -0.522503783594538 0  4.4375 0.5 0  4.4375 -0.5 0  0.5 -6 0  -6 -0.5 0  -5.481553398058253 0.3712833737864077 0  -4.55 -0.4296875 0  -4.4375 0.5 0  -0.5 4.4375 0  0.4792930825242718 5.026881067961165 0  0.4792930825242718 -5.026881067961165 0  -0.5 1.3125 0  1.3125 -0.5 0  -0.5 -1.3125 0  0.25 5.518539952962044 0  0.2125133872612723 -5.500076563152851 0  4.969341874373811 -0.5152550785163683 0  -4.969341874373811 0.5152550785163683 0  3.927189744345589 -0.4712876597840069 0  -5.554036458333333 -0.25 0  5.554036458333333 0.25 0  -0.4690710616438356 -5.462756849315069 0  -0.4690710616438356 5.462756849315069 0  -6 0.5 0  -1.59556436210848 -0.5 0  -3.058421751829955 -0.5 0  -0.5 2.731982421875 0  0.5 2.691578248170045 0  2.691578248170045 -0.5 0  1.641211254104555 0.5 0  0.5 -1.768017578125 0  0.5 -3.058421751829955 0  0.5 1.699267578125 0  3.018017578125 0.5 0  -0.5 -3.018017578125 0  -2.731982421875 0.5 0  6 -0.5 0  -4.050017120925308 -0.5006099332648871 0  -3.940668202764977 0.5371363767281105 0  3.940668202764977 0.5371363767281105 0  0.4517449476047904 3.958458083832335 0  -0.4517449476047904 -3.958458083832335 0  -1.809331797235023 0.5371363767281105 0  -0.4517449476047904 1.791541916167665 0  -0.0546875 4.59375 0  -5.006445312499999 -0.58984375 0  4.605643203883496 -0.04725424757281554 0  4.90625 0.5546875 0  -0.5546875 4.90625 0  0.04725424757281554 -4.605643203883496 0  -0.586116118210531 -4.995821561900013 0  -4.603710222472543 0.04846236095466061 0  -3.1875 0.65234375 0  0.6163907621110913 3.147502300973589 0  2.5625 0.65234375 0  0.6163907621110913 -2.602497699026411 0  -0.637456713551384 3.189259902731882 0  -0.637456713551384 -2.560740097268118 0  -0.34765625 0.34765625 0  -0.639453125 0.708203125 0  0.089630126953125 0.437286376953125 0  -0.4238281249999999 -1.746875 0  1.746875 -0.4238281249999999 0  -0.4238281249999999 4.003125 0  0.4238281249999999 -4.003125 0  -2.5625 -1 0  3.1875 -1 0  -0.09375 -1.21875 0  1.21875 -0.09375 0  0.4020305405760241 -0.1120343241705621 0  -0.6280191027904287 -0.7577505545748082 0  0.90625 -0.59375 0  -1.205500904741459 0.03633725387965409 0  -0.02129048848213058 1.202028574265107 0  -0.1120343241705621 -0.4020305405760241 0  1 1.3125 0  -2.003587563743074 -0.6442361556699288 0  0.6640077663259718 -1.395873598614549 0  5.6875 -1 0  0.6308138580859101 -5.592151086468728 0  -5.6875 -1 0  0.6568032075915271 5.612942566073222 0  5.616530031741774 0.6612875396772174 0  -5.6875 1 0  1.9375 1 0  -1.3125 -1 0  0.1524679547155687 -3.232579139388032 0  0.1524679547155687 2.517420860611968 0  -3.232579139388032 -0.1524679547155687 0  -1.932320553757026 -0.252759244693845 0  2.517420860611968 -0.1524679547155687 0  -0.04776045819569434 -2.464949198504599 0  -0.2420369079104247 3.187693796852321 0  3.751304711039982 -0.1203080877045035 0  -5.397601941771943 -0.609026059866711 0  1.3125 1 0  1.9375 -1 0  -0.6946315101963667 -2.018229242739021 0  -0.6946315101963667 3.731770757260979 0  1 -3.8125 0  2.014364435550335 0.6166648446293641 0  -1 5.6875 0  -1 -5.6875 0  -2.653476149871182 -0.5942957192996303 0  3.096523850128818 -0.5942957192996303 0  1 1.9375 0  -3.8125 -1 0  0.586975531244212 -0.7975955463807081 0  -0.2946248980953088 -4.743710873809568 0  2.625453376770019 0.2814788818359375 0  -3.124546623229981 0.2814788818359375 0  -0.1204856417894853 5.631800603217465 0  5.253862011026742 0.6581468962876398 0  -0.65234375 2.108701557941197 0  0.65234375 3.641298442058803 0  -0.65234375 -3.641298442058803 0  -0.25 -5.744880569758637 0  -4.4375 -1 0  -0.3166212631734941 -2.713595940002554 0  0.6591479224207506 0.1324305912687024 0  0.8660781906552419 0.6468634238104103 0  -0.9887189158197679 0.6452930723873549 0  0.3149351927204296 -1.460971774996065 0  -0.3572852727880474 -0.009629022788047503 0  2.09375 -0.6866724363772454 0  0.6866724363772454 -3.65625 0  0.6866724363772454 2.09375 0  -3.65625 -0.6866724363772454 0  -3.5371337890625 0.65234375 0  -0.1389584113023952 1.944025352615082 0  -2.151744288472698 0.65234375 0  -0.1389584113023951 -3.805974647384918 0  0.1389584113023951 3.805974647384918 0  -2.578772109813904 0.1857224367977529 0  3.171227890186096 0.1857224367977529 0  3.360315647536819 0.65234375 0  0.1857224367977528 -1.921227890186096 0  0.65234375 -2.110315647536819 0  1.894016528727564 0.2415406141485869 0  -3.738232421875 0 0  0.2516875549238616 3.139069895099618 0  -1.913724396854074 0.2011142179916434 0  0.1669456568161915 0.7843410671359501 0  -2.5625 1 0  -1 -3.1875 0  -1 2.5625 0  0.1736601499778735 4.857955663330752 0  -0.1893536587212888 2.577300639071919 0  -0.1893536587212888 -3.172699360928081 0  3.852271904453858 0.206603749322895 0  -3.8125 1 0  -0.1250095034621793 -5.421707592768541 0  3.8125 -1 0  3.617304217264373 -0.6578427703661498 0  0.2630176195580202 -2.636558318495885 0  0.2674330357770522 1.399517071108871 0  0.631726413079416 1.339254523727593 0  4.700571879807737 0.2813704945051134 0  0.7143844363649634 -3.319538455208831 0  2.430461544791169 -0.7143844363649634 0  0.7143844363649634 2.430461544791169 0  -3.319538455208831 -0.7143844363649634 0  5.687045771608623 -0.6520598572553891 0  -5.687045771608623 0.6520598572553891 0  -1.15625 -0.7048248829733235 0  3.438284572973296 -0.01860298867862281 0  -0.03021088078697859 3.451572359862192 0  2.216682837011589 -0.02159585961918548 0  -2.191580885932936 -0.03126387444658879 0  0.1857410764408683 1.895679405349457 0  3.103473238297955 -0.253270943723272 0  -2.646526761702045 -0.253270943723272 0  -2.333137350671861 -0.6791984914172315 0  -1 5.0625 0  -0.6971235589909319 5.213002544375844 0  0.01618705363819947 2.225929180591695 0  0.01618705363819947 -3.524070819408305 0  0.5690054882403073 0.7951310720450595 0  -0.5764940424412852 -3.329579265180942 0  -0.5764940424412852 2.420420734819058 0  3.8125 1 0  -5.372163860234628 0.04365139563106807 0  5.164108319316826 -0.225040894204947 0  -5.361952437854323 0.6744012088984681 0  -5.0625 1 0  5.286835586913878 -0.6616705837083201 0  -5.692815197359722 0.1186699900166531 0  5.663425996156958 -0.07763197815533956 0  -0.9219866027132193 -0.1143045829323572 0  -1.394333629759332 -0.2233077430199216 0  0.09322478991596644 -0.9616596638655462 0  5.0625 -1 0  -0.14412109375 -1.92169189453125 0  -4.28125 -0.7212148987671345 0  0.2649796277366407 0.1735162902120744 0  -4.907855692236596 0.1868230509619793 0  -1.9375 1 0  1 5.0625 0  0.6915124486819284 -5.272938212550202 0  0.683483242673902 5.284948082526911 0  2.5625 -1 0  -1 -3.8125 0  -1 1.9375 0  5.0625 1 0  -1 -1.9375 0  1 5.6875 0  1 -5.6875 0  -1.9375 -1 0  -1 -2.5625 0  -1 3.1875 0  1 -3.1875 0  1 -2.5625 0  1 2.5625 0  1 3.1875 0  -5.0625 -1 0  -1 -1.3125 0  1.3125 -1 0  -1 1.3125 0  -1 3.8125 0  -1 4.4375 0  -4.4375 1 0  4.4375 -1 0  4.4375 1 0  -1.3125 1 0  1 4.4375 0  1 -4.4375 0  -1 -5.0625 0  -1 -4.4375 0  -3.1875 1 0  2.5625 1 0  1 -1.9375 0  1 -1.3125 0  5.6875 1 0  1 3.8125 0  3.1875 1 0  -3.1875 -1 0  1 -5.0625 0  1.35138038998199 0.6675097549271188 0  -0.465625 0.986328125 0  1.435958105992309 0.2563920171199723 0  1.915914614192913 -0.145782394639918 0  -0.8764440609469509 -0.5746869313612541 0  5.355194559946098 0.01566259380337612 0  -5.69333042954964 -0.5242868300459975 0  1.78125 -0.7320750794491524 0  0.7320750794491525 -3.96875 0  -0.3959075548864684 5.166422468926435 0  -4.770522389068053 -0.2123670725088856 0  -4.714160156249999 -0.69234375 0  -4.273484403713342 -0.278160994327167 0  0.9642590244517505 0.08196089404241463 0  0.3500261717645397 -4.727285205957206 0  0.6740868006020392 -4.765147848348443 0  0.6797550207247084 -1.089747806381148 0  -5.186479934354063 0.3046329157552757 0  -5.263288238215326 -0.3369092276308425 0  -2.433484016245305 0.5442571297016638 0  0.1707808983307866 -3.82363304980935 0  -0.1554012991031027 3.867535742674252 0  4.855508096805579 -0.2283975605264581 0  3.644517238097614 0.5646428152488787 0  0.05699603874439441 -0.6452791208413911 0  -0.3550018917972689 -0.5695324323732931 0  0.6
[...]
<PointData  Vectors="u"> 
<DataArray  type="Float64"  Name="u"  NumberOfComponents="3" format="ascii">0.0000000000000000e+00 0.0000000000000000e+00 0.0000000000000000e+00  0.0000000000000000e+00 0.0000000000000000e+00 0.0000000000000000e+00  0.0000000000000000e+00 0.0000000000000000e+00 0.0000000000000000e+00  0.0000000000000000e+00 0.0000000000000000e+00 0.0000000000000000e+00  0.0000000000000000e+00 0.0000000000000000e+00 0.0000000000000000e+00  0.0000000000000000e+00 0.0000000000000000e+00 0.0000000000000000e+00  0.0000000000000000e+00 0.0000000000000000e+00 0.0000000000000000e+00  0.0000000000000000e+00 0.0000000000000000e+00 0.0000000000000000e+00  0.0000000000000000e+00 0.0000000000000000e+00 0.0000000000000000e+00  0.0000000000000000e+00 0.0000000000000000e+00 0.0000000000000000e+00  0.0000000000000000e+00 0.0000000000000000e+00 0.0000000000000000e+00  0.0000000000000000e+00 0.0000000000000000e+00 0.0000000000000000e+00  0.0000000000000000e+00 0.0000000000000000e+00 0.0000000000000000e+00  0.0000000000000000e+00 0.0000000000000000e+00 0.0000000000000000e+00  0.0000000000000000e+00 0.0000000000000000e+00 0.0000000000000000e+00  0.0000000000000000e+00 0.0000000000000000e+00 0.0000000000000000e+00  0.0000000000000000e+00 0.0000000000000000e+00 0.0000000000000000e+00  0.0000000000000000e+00 0.0000000000000000e+00 0.0000000000000000e+00  0.0000000000000000e+00 0.0000000000000000e+00 0.0000000000000000e+00  0.0000000000000000e+00 0.0000000000000000e+00 0.0000000000000000e+00  0.0000000000000000e+00 0.0000000000000000e+00 0.0000000000000000e+00  0.0000000000000000e+00 0.0000000000000000e+00 0.0000000000000000e+00  0.0000000000000000e+00 0.0000000000000000e+00 0.0000000000000000e+00  0.0000000000000000e+00 0.0000000000000000e+00 0.0000000000000000e+00  0.0000000000000000e+00 0.0000000000000000e+00 0.0000000000000000e+00  0.0000000000000000e+00 0.0000000000000000e+00 0.0000000000000000e+00  0.0000000000000000e+00 0.0000000000000000e+00 0.0000000000000000e+00  0.0000000000000000e+00 0.0000000000000000e+00 0.0000000000000000e+00  0.0000000000000000e+00 0.0000000000000000e+00 0.0000000000000000e+00  0.0000000000000000e+00 0.0000000000000000e+00 0.0000000000000000e+00  0.0000000000000000e+00 0.0000000000000000e+00 0.0000000000000000e+00  0.0000000000000000e+00 0.0000000000000000e+00 0.0000000000000000e+00  0.0000000000000000e+00 0.0000000000000000e+00 0.0000000000000000e+00  0.0000000000000000e+00 0.0000000000000000e+00 0.0000000000000000e+00  0.0000000000000000e+00 0.0000000000000000e+00 0.0000000000000000e+00  0.0000000000000000e+00 0.0000000000000000e+00 0.0000000000000000e+00  -1.0862929409527566e-04 2.5993061777877962e-05 0.0000000000000000e+00  1.7087945545603132e-02 -4.6449665455097390e-06 0.0000000000000000e+00  1.6245827242422742e-02 5.0899030680139861e-05 0.0000000000000000e+00  1.7093238341298743e-02 -1.9908367783369361e-07 0.0000000000000000e+00  1.7114650497055368e-02 1.5244638139063466e-05 0.0000000000000000e+00  4.0481564777527506e-06 1.7053878859338765e-02 0.0000000000000000e+00  -1.7045325140780467e-02 2.0294004770560682e-05 0.0000000000000000e+00  1.5731924122997837e-05 1.7063735212321466e-02 0.0000000000000000e+00  -1.6277045474121531e-02 6.1774794813853427e-05 0.0000000000000000e+00  6.0386580469300836e-06 -1.7059361309489821e-02 0.0000000000000000e+00  -2.3546161523014088e-05 -1.6141091933955503e-02 0.0000000000000000e+00  1.9302731207575821e-05 1.6145075658925149e-02 0.0000000000000000e+00  1.8033858993110544e-05 1.7069089111666113e-02 0.0000000000000000e+00  1.7831984576696349e-05 -1.7059241693442532e-02 0.0000000000000000e+00  2.3812496580014256e-05 -1.7091158377916367e-02 0.0000000000000000e+00  -1.7103080660257501e-02 -3.2382851792408505e-06 0.0000000000000000e+00  -1.7078684561040273e-02 -1.6554052299112057e-05 0.0000000000000000e+00  -1.7676020663090035e-05 1.7106441931678224e-02 0.0000000000000000e+00  1.7056096806405983e-02 -1.4822761980275236e-05 0.0000000000000000e+00  -2.4998818861430011e-05 -1.6951726686051629e-02 0.0000000000000000e+00  -1.7009259762539648e-02 -1.8760953537705311e-05 0.0000000000000000e+00  -1.0976604559200430e-02 -2.3387044640685748e-03 0.0000000000000000e+00  2.1309196252140040e-03 -1.0699332572923624e-02 0.0000000000000000e+00  1.0660362491484630e-02 2.3723764906008618e-03 0.0000000000000000e+00  2.2970399716779311e-03 1.0710363452160563e-02 0.0000000000000000e+00  0.0000000000000000e+00 0.0000000000000000e+00 0.0000000000000000e+00  0.0000000000000000e+00 0.0000000000000000e+00 0.0000000000000000e+00  0.0000000000000000e+00 0.0000000000000000e+00 0.0000000000000000e+00  0.0000000000000000e+00 0.0000000000000000e+00 0.0000000000000000e+00  -7.5930713374262907e-03 6.3056218496203159e-03 0.0000000000000000e+00  0.0000000000000000e+00 0.0000000000000000e+00 0.0000000000000000e+00  0.0000000000000000e+00 0.0000000000000000e+00 0.0000000000000000e+00  0.0000000000000000e+00 0.0000000000000000e+00 0.0000000000000000e+00  3.3816963269638597e-05 -1.6305339359981907e-02 0.0000000000000000e+00  0.0000000000000000e+00 0.0000000000000000e+00 0.0000000000000000e+00  -1.7028685889128425e-02 -4.3411602949913269e-06 0.0000000000000000e+00  -1.6875060773810607e-02 2.9588819232834116e-05 0.0000000000000000e+00  -1.6821466929259926e-02 -6.5707286327960188e-06 0.0000000000000000e+00  0.0000000000000000e+00 0.0000000000000000e+00 0.0000000000000000e+00  0.0000000000000000e+00 0.0000000000000000e+00 0.0000000000000000e+00  8.3394835962885491e-06 1.7001416972816544e-02 0.0000000000000000e+00  -6.2725295539153000e-06 1.6983728610988416e-02 0.0000000000000000e+00  0.0000000000000000e+00 0.0000000000000000e+00 0.0000000000000000e+00  0.0000000000000000e+00 0.0000000000000000e+00 0.0000000000000000e+00  8.1891683235666630e-05 1.6816005639986874e-02 0.0000000000000000e+00  -1.4224574450944334e-04 1.6945232739574573e-02 0.0000000000000000e+00  0.0000000000000000e+00 0.0000000000000000e+00 0.0000000000000000e+00  0.0000000000000000e+00 0.0000000000000000e+00 0.0000000000000000e+00  3.0995608035729287e-05 -1.6910486035481984e-02 0.0000000000000000e+00  5.8176511437087257e-06 -1.7022027942827232e-02 0.0000000000000000e+00  0.0000000000000000e+00 0.0000000000000000e+00 0.0000000000000000e+00  -7.8726524200323453e-05 -1.6990467877181514e-02 0.0000000000000000e+00  1.7005432419321399e-04 -1.6890059239628229e-02 0.0000000000000000e+00  0.0000000000000000e+00 0.0000000000000000e+00 0.0000000000000000e+00  0.0000000000000000e+00 0.0000000000000000e+00 0.0000000000000000e+00  0.0000000000000000e+00 0.0000000000000000e+00 0.0000000000000000e+00  0.0000000000000000e+00 0.0000000000000000e+00 0.0000000000000000e+00  0.0000000000000000e+00 0.0000000000000000e+00 0.0000000000000000e+00  0.0000000000000000e+00 0.0000000000000000e+00 0.0000000000000000e+00  -1.6747278549123307e-02 1.3972689097702578e-04 0.0000000000000000e+00  -1.6934538958850404e-02 -1.1989454794584369e-04 0.0000000000000000e+00  0.0000000000000000e+00 0.0000000000000000e+00 0.0000000000000000e+00  0.0000000000000000e+00 0.0000000000000000e+00 0.0000000000000000e+00  0.0000000000000000e+00 0.0000000000000000e+00 0.0000000000000000e+00  0.0000000000000000e+00 0.0000000000000000e+00 0.0000000000000000e+00  0.0000000000000000e+00 0.0000000000000000e+00 0.0000000000000000e+00  0.0000000000000000e+00 0.0000000000000000e+00 0.0000000000000000e+00  1.6729963928353089e-02 1.6162509666607717e-04 0.0000000000000000e+00  1.6793658820951039e-02 -9.8254665934130659e-05 0.0000000000000000e+00  0.0000000000000000e+00 0.0000000000000000e+00 0.0000000000000000e+00  0.0000000000000000e+00 0.0000000000000000e+00 0.0000000000000000e+00  0.0000000000000000e+00 0.0000000000000000e+00 0.0000000000000000e+00  1.6773859409308610e-02 2.7376941467582086e-05 0.0000000000000000e+00  1.7040967389879855e-02 7.4160537628919806e-06 0.0000000000000000e+00  0.0000000000000000e+00 0.0000000000000000e+00 0.0000000000000000e+00  0.0000000000000000e+00 0.0000000000000000e+00 0.0000000000000000e+00  -3.1422519205276541e-03 1.4105415562205336e-02 0.0000000000000000e+00  1.4543304334144582e-02 -3.2408871671704099e-03 0.0000000000000000e+00  -2.9090222435145378e-03 -1.4750678545869709e-02 0.0000000000000000e+00  -1.4914712550518331e-02 2.8527030036767887e-03 0.0000000000000000e+00  2.7145952714778547e-05 -1.6189794170311789e-02 0.0000000000000000e+00  -5.8801402241713277e-06 -1.6972158553474864e-02 0.0000000000000000e+00  -1.6867868472738315e-02 -1.8448302665429879e-05 0.0000000000000000e+00  -1.0748171744852217e-06 1.6942912704119985e-02 0.0000000000000000e+00  3.9042483935095681e-05 1.6824567145036485e-02 0.0000000000000000e+00  7.1603079033430274e-03 -4.4734876725830864e-03 0.0000000000000000e+00  1.6223516627768941e-02 2.3310613719926951e-03 0.0000000000000000e+00  2.4550856702129647e-05 1.6278564009635187e-02 0.0000000000000000e+00  -4.1860304760408659e-03 -7.0518153889570934e-03 0.0000000000000000e+00  -1.6742902882123052e-02 2.0285088381579111e-05 0.0000000000000000e+00  -1.6978480391232956e-02 8.4388771901534962e-06 0.0000000000000000e+00  4.1708894605783225e-05 -1.6761025156745830e-02 0.0000000000000000e+00  1.7016379264751923e-02 1.0298794114192143e-05 0.0000000000000000e+00  1.6830562223471467e-02 2.3739718085587941e-05 0.0000000000000000e+00  1.6940335758207175e-02 4.8369128251667736e-06 0.0000000000000000e+00  1.6040477531837169e-02 -7.5668175024747648e-06 0.0000000000000000e+00  2.7086157161684414e-05 1.6803297484110649e-02 0.0000000000000000e+00  -2.4478201819761310e-05 1.6968206471386305e-02 0.0000000000000000e+00  -8.3656767975032390e-06 -1.6877480811439905e-02 0.0000000000000000e+00  2.6865720625795296e-03 1.6728171187500335e-02 0.0000000000000000e+00  -1.6354423333095541e-02 -2.5108569565940471e-03 0.0000000000000000e+00  2.2989686104812278e-03 -1.6263987310364686e-02 0.0000000000000000e+00  1.2982301729237043e-05 1.7014052263741898e-02 0.0000000000000000e+00  -6.5593381593075789e-06 -1.7102657997168081e-02 0.0000000000000000e+00  -1.6989985461826076e-02 -3.8746542243629085e-05 0.0000000000000000e+00  1.6073025608697004e-02 1.2672213353276903e-05 0.0000000000000000e+00  -1.6832542615894036e-02 -8.0725232340394866e-06 0.0000000000000000e+00  1.6904937031785614e-02 -1.8268806500075358e-06 0.0000000000000000e+00  -1.7021130717946517e-02 -4.4353091874424715e-05 0.0000000000000000e+00  8.5737906688805293e-06 -1.6855397377427160e-02 0.0000000000000000e+00  2.3244774108070525e-06 1.6834438862613588e-02 0.0000000000000000e+00  1.6401042704198596e-02 5.0100560227363453e-05 0.0000000000000000e+00  1.6838514658108261e-02 -9.6840530933480233e-04 0.0000000000000000e+00  1.6904315793169349e-02 -2.8364334561334821e-06 0.0000000000000000e+00  1.3814985975066131e-05 1.6867473344610997e-02 0.0000000000000000e+00  -4.5036750407940146e-05 1.6799208209774371e-02 0.0000000000000000e+00  -1.6871807182723953e-02 -4.5026264069022385e-06 0.0000000000000000e+00  -1.6871154139691296e-02 9.8917734077915939e-04 0.0000000000000000e+00  -6.5747104762449676e-04 -1.6882118365655712e-02 0.0000000000000000e+00  1.0197466471009867e-05 -1.6796678393897962e-02 0.0000000000000000e+00  -7.2520222006050572e-04 1.7001571648022910e-02 0.0000000000000000e+00  -1.6958219665899343e-02 4.7785331262189951e-05 0.0000000000000000e+00  2.2697960765168113e-05 -1.6858421796644447e-02 0.0000000000000000e+00  1.6791573508823671e-02 1.8393142667819022e-06 0.0000000000000000e+00  -1.6225884849373162e-02 -4.6979638977374042e-07 0.0000000000000000e+00  1.6977209903380138e-02 -3.0303776274404204e-06 0.0000000000000000e+00  1.6161839346943787e-02 -6.0622132070973220e-05 0.0000000000000000e+00  -1.6186923454527543e-02 -1.2244464195801583e-04 0.0000000000000000e+00  2.2044046584392554e-05 1.6833794807579620e-02 0.0000000000000000e+00  2.7436699488427243e-05 -1.6811020599951310e-02 0.0000000000000000e+00  1.6207007708677928e-02 5.1049518709218400e-04 0.0000000000000000e+00  5.6584001954898089e-04 1.6732084636912111e-02 0.0000000000000000e+00  2.2637213862576516e-05 1.7064541723609758e-02 0.0000000000000000e+00  1.6289024563278669e-02 -2.6042346427073713e-06 0.0000000000000000e+00  -1.7092824548405151e-02 -4.1728217542364247e-06 0.0000000000000000e+00  -1.4612668679244873e-02 3.3508135308455234e-05 0.0000000000000000e+00  1.6924331775649755e-05 1.4051480636827745e-02 0.0000000000000000e+00  -2.7157326880257872e-06 -1.7095001871094702e-02 0.0000000000000000e+00  -4.9581553817800015e-05 -1.4351467665400313e-02 0.0000000000000000e+00  1.7080899640139278e-02 -7.7414240336023297e-06 0.0000000000000000e+00  1.4088089448639075e-02 2.4782608667769609e-05 0.0000000000000000e+00  -5.1623477990429386e-06 1.4644852756129497e-02 0.0000000000000000e+00  -1.6513411183176306e-02 1.0727688539701633e-04 0.0000000000000000e+00  -2.4355569022103179e-05 -1.4629061629994701e-02 0.0000000000000000e+00  5.5629584413420962e-05 1.4582430249522334e-02 0.0000000000000000e+00  -2.3205136389304701e-06 -1.4344505236807770e-02 0.0000000000000000e+00  4.6658822883386504e-03 4.5113513418713128e-03 0.0000000000000000e+00  8.7567950854440385e-03 1.0252061010258060e-02 0.0000000000000000e+00  -1.1424415185371146e-03 5.8591626007185602e-03 0.0000000000000000e+00  6.6630030621272498e-04 -1.6733012249700547e-02 0.0000000000000000e+00  -1.6708988405755475e-02 -5.9664799114944990e-04 0.0000000000000000e+00  -9.2547818373592715e-06 1.6809772305716751e-02 0.0000000000000000e+00  7.4548574742548206e-06 -1.6841679973902204e-02 0.0000000000000000e+00  0.0000000000000000e+00 0.0000000000000000e+00 0.0000000000000000e+00  0.0000000000000000e+00 0.0000000000000000e+00 0.0000000000000000e+00  7.7493907046072795e-04 -1.4397443041043893e-02 0.0000000000000000e+00  -1.4495950606767366e-02 -4.4391963321414044e-04 0.0000000000000000e+00  -5.4713155402141053e-03 -1.3970257889710546e-03 0.0000000000000000e+00  9.1201309263805388e-03 -1.1675328755641527e-02 0.0000000000000000e+00  -1.4362945589970382e-02 -7.2177781108389190e-03 0.0000000000000000e+00  1.4479688331120609e-02 4.4349338887391938e-04 0.0000000000000000e+00  7.3380095042567097e-05 1.4286770485116524e-02 0.0000000000000000e+00  1.4315392715374506e-03 -5.4213550850662302e-03 0.0000000000000000e+00  0.0000000000000000e+00 0.0000000000000000e+00 0.0000000000000000e+00  1.4761803157074137e-02 -2.4668426314090777e-04 0.0000000000000000e+00  -1.9215799829969452e-03 -1.6901157696744867e-02 0.0000000000000000e+00  0.0000000000000000e+00 0.0000000000000000e+00 0.0000000000000000e+00  5.8072900274663617e-05 -1.4630832694667509e-02 0.0000000000000000e+00  0.0000000000000000e+00 0.0000000000000000e+00 0.0000000000000000e+00  7.4435326661659461e-05 1.4984729986158874e-02 0.0000000000000000e+00  -1.5035149703819159e-02 -1.1855336675278311e-04 0.0000000000000000e+00  0.0000000000000000e+00 0.0000000000000000e+00 0.0000000000000000e+00  0.0000000000000000e+00 0.0000000000000000e+00 0.0000000000000000e+00  0.0000000000000000e+00 0.0000000000000000e+00 0.0000000000000000e+00  9.3931077610609622e-06 -1.7048360969625694e-02 0.0000000000000000e+00  -3.1628953612308452e-05 1.7012271435796780e-02 0.0000000000000000e+00  1.7078249044257945e-02 3.7259917320417613e-06 0.0000000000000000e+00  1.6794304670696938e-02 -2.6985902309823823e-04 0.0000000000000000e+00  -1.7005829651641692e-02 -1.7009869838062394e-05 0.0000000000000000e+00  1.3352128900744152e-05 -1.7019328229474853e-02 0.0000000000000000e+00  1.7287975884061842e-05 1.6952686301404642e-02 0.0000000000000000e+00  -1.7084590861175929e-02 3.1897370529313685e-06 0.0000000000000000e+00  1.4271174045371081e-02 1.4593341408173882e-06 0.0000000000000000e+00  0.0000000000000000e+00 0.0000000000000000e+00 0.0000000000000000e+00  0.0000000000000000e+00 0.0000000000000000e+00 0.0000000000000000e+00  3.5304562527460951e-04 -1.4974960646951897e-02 0.0000000000000000e+00  -7.5366837811631767e-05 1.4939813220567536e-02 0.0000000000000000e+00  0.0000000000000000e+00 0.0000000000000000e+00 0.0000000000000000e+00  -1.6360990938594760e-02 2.3388132579750163e-04 0.0000000000000000e+00  0.0000000000000000e+00 0.0000000000000000e+00 0.0000000000000000e+00  0.0000000000000000e+00 0.0000000000000000e+00 0.0000000000000000e+00  1.6465520965404802e-02 4.0020256474191060e-05 0.0000000000000000e+00  -1.6353943456198387e-02 -2.0317661413132179e-05 0.0000000000000000e+00  0.0000000000000000e+00 0.0000000000000000e+00 0.0000000000000000e+00  0.0000000000000000e+00 0.0000000000000000e+00 0.0000000000000000e+00  -7.9266099363145964e-03 -1.2308004918819960e-02 0.0000000000000000e+00  -1.0072497378759165e-05 -1.6808062834463289e-02 0.0000000000000000e+00  -1.6888540573897184e-02 5.9270350375627973e-05 0.0000000000000000e+00  1.6986244212096772e-02 1.9883064315384311e-06 0.0000000000000000e+00  1.3585747589209420e-05 1.7078591252443039e-02 0.0000000000000000e+00  -1.4944225196317214e-02 -7.6938075315879104e-05 0.0000000000000000e+00  1.0742463149825958e-04 1.4721669284159869e-02 0.0000000000000000e+00  -5.2941310126039524e-06 1.4717864641869065e-02 0.0000000000000000e+00  4.7575362356522972e-05 -1.4672584327477050e-02 0.0000000000000000e+00  1.7342718376096356e-05 -1.6888530384477612e-02 0.0000000000000000e+00  0.0000000000000000e+00 0.0000000000000000e+00 0.0000000000000000e+00  3.7286842865837907e-06 -1.6836033494215478e-02 0.0000000000000000e+00  -8.6826688754561964e-03 1.7908146534733047e-03 0.0000000000000000e+00  -1.3159132188518547e-02 8.8432143080591219e-03 0.0000000000000000e+00  1.5223949793295846e-02 7.1135494081732351e-03 0.0000000000000000e+00  -1.2643876120779656e-03 -1.6014865534536064e-02 0.0000000000000000e+00  4.6972785401089090e-03 1.1536434907463288e-04 0.0000000000000000e+00  -1.5150595802189457e-02 -1.6268733493385337e-04 0.0000000000000000e+00  4.6509956254776704e-06 -1.5172834357268990e-02 0.0000000000000000e+00  -1.7176724194909961e-04 1.5143441866847377e-02 0.0000000000000000e+00  1.4974731320753831e-02 1.7505346593942582e-05 0.0000000000000000e+00  1.4911168980191042e-02 -4.6996733770229838e-06 0.0000000000000000e+00  1.4184172728798152e-04 1.6804841640076312e-02 0.0000000000000000e+00  1.4918366861405305e-02 2.8514193426942863e-04 0.0000000000000000e+00  2.4559164153522755e-05 -1.7060637267445774e-02 0.0000000000000000e+00  1.5541718704487948e-05 1.7070466381888503e-02 0.0000000000000000e+00  1.6968112233099308e-02 2.4579052017143410e-05 0.0000000000000000e+00  -1.7061157982919246e-02 3.2994613807101781e-05 0.0000000000000000e+00  -1.4519846465659819e-02 1.1509484473261320e-04 0.0000000000000000e+00  -1.3739519408716432e-04 -1.6790999963107730e-02 0.0000000000000000e+00  -1.3943557956378819e-04 -1.4398555263298814e-02 0.0000000000000000e+00  -1.6765810296943282e-02 3.4858067096364378e-04 0.0000000000000000e+00  1.7085001367882317e-02 1.3506902460842312e-05 0.0000000000000000e+00  4.0189864547712652e-06 1.7020401863763506e-02 0.0000000000000000e+00  1.6780922919038998e-02 2.8600188454173448e-04 0.0000000000000000e+00  -1.9480856405983708e-03 1.0445727142262187e-02 0.0000000000000000e+00  0.0000000000000000e+00 0.0000000000000000e+00 0.0000000000000000e+00  0.0000000000000000e+00 0.0000000000000000e+00 0.0000000000000000e+00  0.0000000000000000e+00 0.0000000000000000e+00 0.0000000000000000e+00  -6.4434549735853864e-06 1.7088986404531110e-02 0.0000000000000000e+00  1.6773256721856610e-05 1.6997937511491677e-02 0.0000000000000000e+00  1.8962843365433536e-05 -1.7024023353486125e-02 0.0000000000000000e+00  -1.6907530457106402e-02 -9.5236941356217760e-06 0.0000000000000000e+00  0.0000000000000000e+00 0.0000000000000000e+00 0.0000000000000000e+00  -4.3883375414865701e-06 -1.7056443022537796e-02 0.0000000000000000e+00  0.0000000000000000e+00 0.0000000000000000e+00 0.0000000000000000e+00  -1.4533471894013800e-02 -2.1372967004093700e-05 0.0000000000000000e+00  -3.0755036021305689e-05 -1.6996760180646091e-02 0.0000000000000000e+00  -1.4069403774924546e-03 1.5623673273034148e-02 0.0000000000000000e+00  -2.4189391187233204e-03 1.6659381638138786e-02 0.0000000000000000e+00  -1.7054678773510273e-02 2.6683612311363463e-0