<?xml version="1.0"?>
<VTKFile type="UnstructuredGrid"  version="0.1"  >
<UnstructuredGrid>
<Piece  NumberOfPoints="778" NumberOfCells="1401">
<Points>
<DataArray  type="Float64"  NumberOfComponents="3"  format="ascii">1 -1 0  6 -1 0  6 1 0  1 1 0  1 6 0  -1 6 0  -1 1 0  -6 1 0  -6 -1 0  -1 -1 0  -1 -6 0  1 -6 0  1 3.5 0  -1 3.5 0  -1 -3.5 0  1 -3.5 0  3.5 -1 0  3.5 1 0  -3.5 -1 0  -3.5 1 0  -1 -2.25 0  1 -2.25 0  2.25 -1 0  2.25 1 0  -1 2.25 0  1 2.25 0  -1 4.75 0  1 4.75 0  -4.75 -1 0  -4.75 1 0  -2.25 1 0  -2.25 -1 0  1 -4.75 0  -1 -4.75 0  4.75 1 0  4.75 -1 0  0 0 0  -2.875 0 0  -1.625 0 0  -4.125 0 0  -6 0 0  0 2.875 0  2.875 0 0  0 6 0  1.625 0 0  0 -2.875 0  0 -1.625 0  0 1.625 0  0 4.125 0  0 -6 0  0 -4.125 0  4.125 0 0  6 0 0  -0.109375 5.0625 0  -5.0625 -0.109375 0  -0.109375 -5.0625 0  5.0625 0.109375 0  0.8125 -0.1875 0  -0.1875 -0.8125 0  -0.8125 0.1875 0  -0.1875 0.8125 0  1 5.375 0  -5.375 1 0  1 -5.375 0  5.375 -1 0  0.53515625 0.46484375 0  -5.375 -1 0  -1 5.375 0  -1 -5.375 0  -0.5 -6 0  5.375 1 0  6 0.5 0  3.5 0.3046875 0  3.43125 -0.34765625 0  2.875 -1 0  4.125 1 0  0.3046875 3.5 0  -0.34765625 3.56875 0  -1 4.125 0  1 4.125 0  -0.3046875 2.25 0  0.34765625 2.18125 0  1 1.625 0  -1 -1.625 0  -0.3046875 -3.5 0  0.34765625 -3.56875 0  1 -4.125 0  0.3046875 -2.25 0  -0.34765625 -2.18125 0  -1 -4.125 0  -1 -2.875 0  1 -2.875 0  1 -1.625 0  1.625 -1 0  1.625 1 0  2.25 0.3046875 0  2.18125 -0.34765625 0  4.125 -1 0  2.875 1 0  1 2.875 0  -1 1.625 0  -1 2.875 0  -4.125 -1 0  -2.25 0.3046875 0  -2.31875 -0.34765625 0  -2.875 -1 0  -1.625 1 0  -4.125 1 0  -3.5 0.3046875 0  -3.56875 -0.34765625 0  -1.625 -1 0  -2.875 1 0  0.380626321794301 1.06853329530276 0  -1.110819327731092 -0.3739495798319328 0  0.3739495798319328 -1.110819327731092 0  1.151210293219304 0.3991939332620648 0  -0.5 -4.4375 0  0.5 -4.4375 0  5.481553398058253 -0.3712833737864077 0  0.5 4.4375 0  0.5 6 0  -0.522503783594538 -0.3265648647465863 0  -1.3125 0.5 0  -0.5 6 0  0.3265648647465863 -0.522503783594538 0  4.4375 0.5 0  4.4375 -0.5 0  0.5 -6 0  -6 -0.5 0  -5.481553398058253 0.3712833737864077 0  -4.55 -0.4296875 0  -4.4375 0.5 0  -0.5 4.4375 0  0.4792930825242718 5.026881067961165 0  0.4792930825242718 -5.026881067961165 0  -0.5 1.3125 0  1.3125 -0.5 0  -0.5 -1.3125 0  0.25 5.518539952962044 0  0.2125133872612723 -5.500076563152851 0  4.969341874373811 -0.5152550785163683 0  -4.969341874373811 0.5152550785163683 0  3.927189744345589 -0.4712876597840069 0  -5.554036458333333 -0.25 0  5.554036458333333 0.25 0  -0.4690710616438356 -5.462756849315069 0  -0.4690710616438356 5.462756849315069 0  -6 0.5 0  -1.59556436210848 -0.5 0  -3.058421751829955 -0.5 0  -0.5 2.731982421875 0  0.5 2.691578248170045 0  2.691578248170045 -0.5 0  1.641211254104555 0.5 0  0.5 -1.768017578125 0  0.5 -3.058421751829955 0  0.5 1.699267578125 0  3.018017578125 0.5 0  -0.5 -3.018017578125 0  -2.731982421875 0.5 0  6 -0.5 0  -4.050017120925308 -0.5006099332648871 0  -3.940668202764977 0.5371363767281105 0  3.940668202764977 0.5371363767281105 0  0.4517449476047904 3.958458083832335 0  -0.4517449476047904 -3.958458083832335 0  -1.809331797235023 0.5371363767281105 0  -0.4517449476047904 1.791541916167665 0  -0.0546875 4.59375 0  -5.006445312499999 -0.58984375 0  4.605643203883496 -0.04725424757281554 0  4.90625 0.5546875 0  -0.5546875 4.90625 0  0.04725424757281554 -4.605643203883496 0  -0.586116118210531 -4.995821561900013 0  -4.603710222472543 0.04846236095466061 0  -3.1875 0.65234375 0  0.6163907621110913 3.147502300973589 0  2.5625 0.65234375 0  0.6163907621110913 -2.602497699026411 0  -0.637456713551384 3.189259902731882 0  -0.637456713551384 -2.560740097268118 0  -0.34765625 0.34765625 0  -0.639453125 0.708203125 0  0.089630126953125 0.437286376953125 0  -0.4238281249999999 -1.746875 0  1.746875 -0.4238281249999999 0  -0.4238281249999999 4.003125 0  0.4238281249999999 -4.003125 0  -2.5625 -1 0  3.1875 -1 0  -0.09375 -1.21875 0  1.21875 -0.09375 0  0.4020305405760241 -0.1120343241705621 0  -0.6280191027904287 -0.7577505545748082 0  0.90625 -0.59375 0  -1.205500904741459 0.03633725387965409 0  -0.02129048848213058 1.202028574265107 0  -0.1120343241705621 -0.4020305405760241 0  1 1.3125 0  -2.003587563743074 -0.6442361556699288 0  0.6640077663259718 -1.395873598614549 0  5.6875 -1 0  0.6308138580859101 -5.592151086468728 0  -5.6875 -1 0  0.6568032075915271 5.612942566073222 0  5.616530031741774 0.6612875396772174 0  -5.6875 1 0  1.9375 1 0  -1.3125 -1 0  0.1524679547155687 -3.232579139388032 0  0.1524679547155687 2.517420860611968 0  -3.232579139388032 -0.1524679547155687 0  -1.932320553757026 -0.252759244693845 0  2.517420860611968 -0.1524679547155687 0  -0.04776045819569434 -2.464949198504599 0  -0.2420369079104247 3.187693796852321 0  3.751304711039982 -0.1203080877045035 0  -5.397601941771943 -0.609026059866711 0  1.3125 1 0  1.9375 -1 0  -0.6946315101963667 -2.018229242739021 0  -0.6946315101963667 3.731770757260979 0  1 -3.8125 0  2.014364435550335 0.6166648446293641 0  -1 5.6875 0  -1 -5.6875 0  -2.653476149871182 -0.5942957192996303 0  3.096523850128818 -0.5942957192996303 0  1 1.9375 0  -3.8125 -1 0  0.586975531244212 -0.7975955463807081 0  -0.2946248980953088 -4.743710873809568 0  2.625453376770019 0.2814788818359375 0  -3.124546623229981 0.2814788818359375 0  -0.1204856417894853 5.631800603217465 0  5.253862011026742 0.6581468962876398 0  -0.65234375 2.108701557941197 0  0.65234375 3.641298442058803 0  -0.65234375 -3.641298442058803 0  -0.25 -5.744880569758637 0  -4.4375 -1 0  -0.3166212631734941 -2.713595940002554 0  0.6591479224207506 0.1324305912687024 0  0.8660781906552419 0.6468634238104103 0  -0.9887189158197679 0.6452930723873549 0  0.3149351927204296 -1.460971774996065 0  -0.3572852727880474 -0.009629022788047503 0  2.09375 -0.6866724363772454 0  0.6866724363772454 -3.65625 0  0.6866724363772454 2.09375 0  -3.65625 -0.6866724363772454 0  -3.5371337890625 0.65234375 0  -0.1389584113023952 1.944025352615082 0  -2.151744288472698 0.65234375 0  -0.1389584113023951 -3.805974647384918 0  0.1389584113023951 3.805974647384918 0  -2.578772109813904 0.1857224367977529 0  3.171227890186096 0.1857224367977529 0  3.360315647536819 0.65234375 0  0.1857224367977528 -1.921227890186096 0  0.65234375 -2.110315647536819 0  1.894016528727564 0.2415406141485869 0  -3.738232421875 0 0  0.2516875549238616 3.139069895099618 0  -1.913724396854074 0.2011142179916434 0  0.1669456568161915 0.7843410671359501 0  -2.5625 1 0  -1 -3.1875 0  -1 2.5625 0  0.1736601499778735 4.857955663330752 0  -0.1893536587212888 2.577300639071919 0  -0.1893536587212888 -3.172699360928081 0  3.852271904453858 0.206603749322895 0  -3.8125 1 0  -0.1250095034621793 -5.421707592768541 0  3.8125 -1 0  3.617304217264373 -0.6578427703661498 0  0.2630176195580202 -2.636558318495885 0  0.2674330357770522 1.399517071108871 0  0.631726413079416 1.339254523727593 0  4.700571879807737 0.2813704945051134 0  0.7143844363649634 -3.319538455208831 0  2.430461544791169 -0.7143844363649634 0  0.7143844363649634 2.430461544791169 0  -3.319538455208831 -0.7143844363649634 0  5.687045771608623 -0.6520598572553891 0  -5.687045771608623 0.6520598572553891 0  -1.15625 -0.7048248829733235 0  3.438284572973296 -0.01860298867862281 0  -0.03021088078697859 3.451572359862192 0  2.216682837011589 -0.02159585961918548 0  -2.191580885932936 -0.03126387444658879 0  0.1857410764408683 1.895679405349457 0  3.103473238297955 -0.253270943723272 0  -2.646526761702045 -0.253270943723272 0  -2.333137350671861 -0.6791984914172315 0  -1 5.0625 0  -0.6971235589909319 5.213002544375844 0  0.01618705363819947 2.225929180591695 0  0.01618705363819947 -3.524070819408305 0  0.5690054882403073 0.7951310720450595 0  -0.5764940424412852 -3.329579265180942 0  -0.5764940424412852 2.420420734819058 0  3.8125 1 0  -5.372163860234628 0.04365139563106807 0  5.164108319316826 -0.225040894204947 0  -5.361952437854323 0.6744012088984681 0  -5.0625 1 0  5.286835586913878 -0.6616705837083201 0  -5.692815197359722 0.1186699900166531 0  5.663425996156958 -0.07763197815533956 0  -0.9219866027132193 -0.1143045829323572 0  -1.394333629759332 -0.2233077430199216 0  0.09322478991596644 -0.9616596638655462 0  5.0625 -1 0  -0.14412109375 -1.92169189453125 0  -4.28125 -0.7212148987671345 0  0.2649796277366407 0.1735162902120744 0  -4.907855692236596 0.1868230509619793 0  -1.9375 1 0  1 5.0625 0  0.6915124486819284 -5.272938212550202 0  0.683483242673902 5.284948082526911 0  2.5625 -1 0  -1 -3.8125 0  -1 1.9375 0  5.0625 1 0  -1 -1.9375 0  1 5.6875 0  1 -5.6875 0  -1.9375 -1 0  -1 -2.5625 0  -1 3.1875 0  1 -3.1875 0  1 -2.5625 0  1 2.5625 0  1 3.1875 0  -5.0625 -1 0  -1 -1.3125 0  1.3125 -1 0  -1 1.3125 0  -1 3.8125 0  -1 4.4375 0  -4.4375 1 0  4.4375 -1 0  4.4375 1 0  -1.3125 1 0  1 4.4375 0  1 -4.4375 0  -1 -5.0625 0  -1 -4.4375 0  -3.1875 1 0  2.5625 1 0  1 -1.9375 0  1 -1.3125 0  5.6875 1 0  1 3.8125 0  3.1875 1 0  -3.1875 -1 0  1 -5.0625 0  1.35138038998199 0.6675097549271188 0  -0.465625 0.986328125 0  1.435958105992309 0.2563920171199723 0  1.915914614192913 -0.145782394639918 0  -0.8764440609469509 -0.5746869313612541 0  5.355194559946098 0.01566259380337612 0  -5.69333042954964 -0.5242868300459975 0  1.78125 -0.7320750794491524 0  0.7320750794491525 -3.96875 0  -0.3959075548864684 5.166422468926435 0  -4.770522389068053 -0.2123670725088856 0  -4.714160156249999 -0.69234375 0  -4.273484403713342 -0.278160994327167 0  0.9642590244517505 0.08196089404241463 0  0.3500261717645397 -4.727285205957206 0  0.6740868006020392 -4.765147848348443 0  0.6797550207247084 -1.089747806381148 0  -5.186479934354063 0.3046329157552757 0  -5.263288238215326 -0.3369092276308425 0  -2.433484016245305 0.5442571297016638 0  0.1707808983307866 -3.82363304980935 0  -0.1554012991031027 3.867535742674252 0  4.855508096805579 -0.2283975605264581 0  3.644517238097614 0.5646428152488787 0  0.05699603874439441 -0.6452791208413911 0  -0.3550018917972689 -0.5695324323732931 0  0.6
[...]
<PointData  Vectors="u"> 
<DataArray  type="Float64"  Name="u"  NumberOfComponents="3" format="ascii">0.0000000000000000e+00 0.0000000000000000e+00 0.0000000000000000e+00  0.0000000000000000e+00 0.0000000000000000e+00 0.0000000000000000e+00  0.0000000000000000e+00 0.0000000000000000e+00 0.0000000000000000e+00  0.0000000000000000e+00 0.0000000000000000e+00 0.0000000000000000e+00  0.0000000000000000e+00 0.0000000000000000e+00 0.0000000000000000e+00  0.0000000000000000e+00 0.0000000000000000e+00 0.0000000000000000e+00  0.0000000000000000e+00 0.0000000000000000e+00 0.0000000000000000e+00  0.0000000000000000e+00 0.0000000000000000e+00 0.0000000000000000e+00  0.0000000000000000e+00 0.0000000000000000e+00 0.0000000000000000e+00  0.0000000000000000e+00 0.0000000000000000e+00 0.0000000000000000e+00  0.0000000000000000e+00 0.0000000000000000e+00 0.0000000000000000e+00  0.0000000000000000e+00 0.0000000000000000e+00 0.0000000000000000e+00  0.0000000000000000e+00 0.0000000000000000e+00 0.0000000000000000e+00  0.0000000000000000e+00 0.0000000000000000e+00 0.0000000000000000e+00  0.0000000000000000e+00 0.0000000000000000e+00 0.0000000000000000e+00  0.0000000000000000e+00 0.0000000000000000e+00 0.0000000000000000e+00  0.0000000000000000e+00 0.0000000000000000e+00 0.0000000000000000e+00  0.0000000000000000e+00 0.0000000000000000e+00 0.0000000000000000e+00  0.0000000000000000e+00 0.0000000000000000e+00 0.0000000000000000e+00  0.0000000000000000e+00 0.0000000000000000e+00 0.0000000000000000e+00  0.0000000000000000e+00 0.0000000000000000e+00 0.0000000000000000e+00  0.0000000000000000e+00 0.0000000000000000e+00 0.0000000000000000e+00  0.0000000000000000e+00 0.0000000000000000e+00 0.0000000000000000e+00  0.0000000000000000e+00 0.0000000000000000e+00 0.0000000000000000e+00  0.0000000000000000e+00 0.0000000000000000e+00 0.0000000000000000e+00  0.0000000000000000e+00 0.0000000000000000e+00 0.0000000000000000e+00  0.0000000000000000e+00 0.0000000000000000e+00 0.0000000000000000e+00  0.0000000000000000e+00 0.0000000000000000e+00 0.0000000000000000e+00  0.0000000000000000e+00 0.0000000000000000e+00 0.0000000000000000e+00  0.0000000000000000e+00 0.0000000000000000e+00 0.0000000000000000e+00  0.0000000000000000e+00 0.0000000000000000e+00 0.0000000000000000e+00  0.0000000000000000e+00 0.0000000000000000e+00 0.0000000000000000e+00  0.0000000000000000e+00 0.0000000000000000e+00 0.0000000000000000e+00  0.0000000000000000e+00 0.0000000000000000e+00 0.0000000000000000e+00  0.0000000000000000e+00 0.0000000000000000e+00 0.0000000000000000e+00  0.0000000000000000e+00 0.0000000000000000e+00 0.0000000000000000e+00  -2.0052829554099814e-04 1.0278710262200447e-04 0.0000000000000000e+00  5.4943127437254914e-02 -1.1327349653397150e-05 0.0000000000000000e+00  5.2515199007611021e-02 5.9911406509607324e-05 0.0000000000000000e+00  5.5009182872587721e-02 4.1701394622876171e-06 0.0000000000000000e+00  5.5070799096831421e-02 3.7324642623161455e-05 0.0000000000000000e+00  1.3189155503664174e-05 5.4934590646317338e-02 0.0000000000000000e+00  -5.4854061674420633e-02 4.4911189376628234e-05 0.0000000000000000e+00  4.0388444463652874e-05 5.4863209194802767e-02 0.0000000000000000e+00  -5.2616539371929880e-02 1.2046951740361803e-04 0.0000000000000000e+00  6.4694386515768091e-06 -5.4896459549127974e-02 0.0000000000000000e+00  -9.3095949519921879e-06 -5.2457587682941217e-02 0.0000000000000000e+00  4.2908763824690804e-05 5.2394285082369554e-02 0.0000000000000000e+00  3.6163945881570828e-05 5.4889329829531201e-02 0.0000000000000000e+00  4.2637217883199383e-05 -5.4879402144489088e-02 0.0000000000000000e+00  7.0216983585664976e-05 -5.4956315253631947e-02 0.0000000000000000e+00  -5.5018019809277202e-02 -2.0748269055889583e-05 0.0000000000000000e+00  -5.4990539593459321e-02 -4.9000545445098191e-05 0.0000000000000000e+00  -6.8225059334343419e-05 5.5018055733825642e-02 0.0000000000000000e+00  5.4963275900854286e-02 -7.4186717810696662e-05 0.0000000000000000e+00  -8.4294788285398168e-05 -5.4778500406891646e-02 0.0000000000000000e+00  -5.4892100134633595e-02 -6.7246424679130932e-05 0.0000000000000000e+00  -3.5642201156773967e-02 -7.3571949796064733e-03 0.0000000000000000e+00  7.1668881806943689e-03 -3.5172767853653017e-02 0.0000000000000000e+00  3.5059975025578088e-02 7.2591774385315066e-03 0.0000000000000000e+00  7.3740310488579573e-03 3.5229633433097110e-02 0.0000000000000000e+00  0.0000000000000000e+00 0.0000000000000000e+00 0.0000000000000000e+00  0.0000000000000000e+00 0.0000000000000000e+00 0.0000000000000000e+00  0.0000000000000000e+00 0.0000000000000000e+00 0.0000000000000000e+00  0.0000000000000000e+00 0.0000000000000000e+00 0.0000000000000000e+00  -2.4568374653551266e-02 2.0751870696727986e-02 0.0000000000000000e+00  0.0000000000000000e+00 0.0000000000000000e+00 0.0000000000000000e+00  0.0000000000000000e+00 0.0000000000000000e+00 0.0000000000000000e+00  0.0000000000000000e+00 0.0000000000000000e+00 0.0000000000000000e+00  5.7444678344537586e-05 -5.2399224412054191e-02 0.0000000000000000e+00  0.0000000000000000e+00 0.0000000000000000e+00 0.0000000000000000e+00  -5.4730106451223448e-02 -1.5259598472265110e-06 0.0000000000000000e+00  -5.5104148959032137e-02 6.1264624920546004e-05 0.0000000000000000e+00  -5.4980107727097556e-02 2.2542409190521743e-05 0.0000000000000000e+00  0.0000000000000000e+00 0.0000000000000000e+00 0.0000000000000000e+00  0.0000000000000000e+00 0.0000000000000000e+00 0.0000000000000000e+00  3.3177354036112470e-05 5.4903884278434220e-02 0.0000000000000000e+00  -2.1413225799592051e-06 5.5018477659987505e-02 0.0000000000000000e+00  0.0000000000000000e+00 0.0000000000000000e+00 0.0000000000000000e+00  0.0000000000000000e+00 0.0000000000000000e+00 0.0000000000000000e+00  2.5979873489119672e-04 5.4689795319283176e-02 0.0000000000000000e+00  -3.8347113580484678e-04 5.4746310724142301e-02 0.0000000000000000e+00  0.0000000000000000e+00 0.0000000000000000e+00 0.0000000000000000e+00  0.0000000000000000e+00 0.0000000000000000e+00 0.0000000000000000e+00  4.0192321120718311e-05 -5.4904914430536175e-02 0.0000000000000000e+00  1.7206425429382811e-05 -5.4942822089118840e-02 0.0000000000000000e+00  0.0000000000000000e+00 0.0000000000000000e+00 0.0000000000000000e+00  -2.3166541333373775e-04 -5.4700666867166174e-02 0.0000000000000000e+00  4.7470337856726671e-04 -5.4805538974539068e-02 0.0000000000000000e+00  0.0000000000000000e+00 0.0000000000000000e+00 0.0000000000000000e+00  0.0000000000000000e+00 0.0000000000000000e+00 0.0000000000000000e+00  0.0000000000000000e+00 0.0000000000000000e+00 0.0000000000000000e+00  0.0000000000000000e+00 0.0000000000000000e+00 0.0000000000000000e+00  0.0000000000000000e+00 0.0000000000000000e+00 0.0000000000000000e+00  0.0000000000000000e+00 0.0000000000000000e+00 0.0000000000000000e+00  -5.4690965298882774e-02 3.4285945805691617e-04 0.0000000000000000e+00  -5.4700177470471137e-02 -3.5041827235847992e-04 0.0000000000000000e+00  0.0000000000000000e+00 0.0000000000000000e+00 0.0000000000000000e+00  0.0000000000000000e+00 0.0000000000000000e+00 0.0000000000000000e+00  0.0000000000000000e+00 0.0000000000000000e+00 0.0000000000000000e+00  0.0000000000000000e+00 0.0000000000000000e+00 0.0000000000000000e+00  0.0000000000000000e+00 0.0000000000000000e+00 0.0000000000000000e+00  0.0000000000000000e+00 0.0000000000000000e+00 0.0000000000000000e+00  5.4840502086274889e-02 3.5545917427740037e-04 0.0000000000000000e+00  5.4922140355395006e-02 -3.2844670244265638e-04 0.0000000000000000e+00  0.0000000000000000e+00 0.0000000000000000e+00 0.0000000000000000e+00  0.0000000000000000e+00 0.0000000000000000e+00 0.0000000000000000e+00  0.0000000000000000e+00 0.0000000000000000e+00 0.0000000000000000e+00  5.4808839934642910e-02 9.3439944539485686e-05 0.0000000000000000e+00  5.4983019242635926e-02 2.4793243255272518e-05 0.0000000000000000e+00  0.0000000000000000e+00 0.0000000000000000e+00 0.0000000000000000e+00  0.0000000000000000e+00 0.0000000000000000e+00 0.0000000000000000e+00  -1.0204711587304995e-02 4.6490314152280665e-02 0.0000000000000000e+00  4.7799169986320403e-02 -9.9558617387329271e-03 0.0000000000000000e+00  -9.5057450837479959e-03 -4.8249486460180777e-02 0.0000000000000000e+00  -4.8847331423603584e-02 8.9707671760094441e-03 0.0000000000000000e+00  3.7879972325189338e-05 -5.2343719926014325e-02 0.0000000000000000e+00  -4.5257870525452160e-07 -5.4983630277896149e-02 0.0000000000000000e+00  -5.5035739580610969e-02 -7.7242984334628906e-05 0.0000000000000000e+00  4.0561001950211572e-06 5.4879963969557168e-02 0.0000000000000000e+00  4.3191354553741171e-05 5.4870720636356049e-02 0.0000000000000000e+00  2.3290915449675705e-02 -1.4538549566497376e-02 0.0000000000000000e+00  5.3123509889829952e-02 7.4166438909680759e-03 0.0000000000000000e+00  1.9211386967210075e-05 5.2394518566983232e-02 0.0000000000000000e+00  -1.4028515386057665e-02 -2.3273117235050066e-02 0.0000000000000000e+00  -5.4883726514809175e-02 -4.5070773606685846e-05 0.0000000000000000e+00  -5.5011393595379446e-02 6.3161601533528887e-06 0.0000000000000000e+00  2.5633853001009833e-05 -5.4872665697306741e-02 0.0000000000000000e+00  5.5095368991394784e-02 -2.0409384008192924e-06 0.0000000000000000e+00  5.4939370676357055e-02 5.5223296065229200e-05 0.0000000000000000e+00  5.5095965678375047e-02 6.6286924386911870e-06 0.0000000000000000e+00  5.2164534191722720e-02 -1.5257381712034658e-05 0.0000000000000000e+00  1.5786050007202648e-05 5.4735254981328869e-02 0.0000000000000000e+00  -3.3749304371824164e-05 5.5020535563096579e-02 0.0000000000000000e+00  -3.1874691721838134e-05 -5.4955472755229898e-02 0.0000000000000000e+00  7.8924257912341284e-03 5.4502140444985907e-02 0.0000000000000000e+00  -5.3661331917411396e-02 -7.3735697876568078e-03 0.0000000000000000e+00  7.4419446628814553e-03 -5.3198204758208370e-02 0.0000000000000000e+00  3.4566641612570752e-05 5.4900704553557923e-02 0.0000000000000000e+00  -2.5974788727671732e-05 -5.4983286798185059e-02 0.0000000000000000e+00  -5.5063870994951095e-02 -5.9379582876888433e-05 0.0000000000000000e+00  5.2768461269499599e-02 1.1177421774212752e-07 0.0000000000000000e+00  -5.4934567506744122e-02 -3.0134412756662907e-05 0.0000000000000000e+00  5.5013913311359443e-02 -7.9767270958424735e-05 0.0000000000000000e+00  -5.4951218099110584e-02 -1.4401049751615452e-04 0.0000000000000000e+00  4.9264920743531594e-06 -5.4810349152354117e-02 0.0000000000000000e+00  1.8778902831268217e-05 5.4867024973384568e-02 0.0000000000000000e+00  5.3317374819098165e-02 1.1920184432118724e-04 0.0000000000000000e+00  5.4712694148942198e-02 -2.8481050547654509e-03 0.0000000000000000e+00  5.5009735042041666e-02 1.6866379981808280e-05 0.0000000000000000e+00  -7.6601167881794872e-06 5.4946062284287091e-02 0.0000000000000000e+00  -9.3706492806923511e-05 5.4839381649800130e-02 0.0000000000000000e+00  -5.4933523164138520e-02 -2.8953933575181363e-05 0.0000000000000000e+00  -5.4810466353530270e-02 2.7991658016789990e-03 0.0000000000000000e+00  -1.6434044280278768e-03 -5.4591778447114291e-02 0.0000000000000000e+00  -1.5457866913919334e-05 -5.4905656556198106e-02 0.0000000000000000e+00  -1.9166517077916414e-03 5.4942646687838499e-02 0.0000000000000000e+00  -5.4803793285633229e-02 9.7835090017456706e-05 0.0000000000000000e+00  1.0877249057972007e-04 -5.4860437557156735e-02 0.0000000000000000e+00  5.4988488011829734e-02 1.1820607516741888e-06 0.0000000000000000e+00  -5.3193498238004587e-02 -5.6942615649413181e-05 0.0000000000000000e+00  5.4983297840544641e-02 -4.2683118126544587e-06 0.0000000000000000e+00  5.2871165686841082e-02 -1.8735941815405314e-04 0.0000000000000000e+00  -5.2853246395555213e-02 -3.9945221279926851e-04 0.0000000000000000e+00  2.7157196463084897e-05 5.4911684908022507e-02 0.0000000000000000e+00  8.4479889771989976e-05 -5.4925022004945638e-02 0.0000000000000000e+00  5.2583098337231786e-02 1.4714916713805108e-03 0.0000000000000000e+00  1.5528195564085163e-03 5.4305801587718548e-02 0.0000000000000000e+00  5.8196733174184711e-05 5.4929150511023060e-02 0.0000000000000000e+00  5.3361910829715482e-02 9.4971683811669258e-05 0.0000000000000000e+00  -5.4999228465590973e-02 -6.8236186832519596e-06 0.0000000000000000e+00  -4.9906459746456036e-02 8.1555498028557089e-05 0.0000000000000000e+00  6.9941526339162765e-05 4.8879089459409109e-02 0.0000000000000000e+00  -1.3298439675136983e-05 -5.5022821619188353e-02 0.0000000000000000e+00  -2.1645447493204005e-04 -4.9515120093452131e-02 0.0000000000000000e+00  5.5030336350126559e-02 -4.0311258920778278e-05 0.0000000000000000e+00  4.9604977756319925e-02 1.2442185025167616e-04 0.0000000000000000e+00  3.7983502480854795e-05 5.0399160100824680e-02 0.0000000000000000e+00  -5.4161684786141834e-02 2.9139676886569033e-04 0.0000000000000000e+00  -1.9563922681166456e-04 -5.0315527748570746e-02 0.0000000000000000e+00  2.4095847395934683e-04 5.0911337256962057e-02 0.0000000000000000e+00  -9.8405822173357733e-05 -5.1082848549112589e-02 0.0000000000000000e+00  1.5357782932994354e-02 1.5145992092167160e-02 0.0000000000000000e+00  2.9361229071958338e-02 3.3797131259589046e-02 0.0000000000000000e+00  -3.9585880853243152e-03 1.9254411690527006e-02 0.0000000000000000e+00  1.8755389224504636e-03 -5.4341907589857498e-02 0.0000000000000000e+00  -5.4173840646663265e-02 -1.7098645624563061e-03 0.0000000000000000e+00  -2.3579595733951559e-05 5.4830296697075509e-02 0.0000000000000000e+00  -3.6939414325334464e-06 -5.4927181648614209e-02 0.0000000000000000e+00  0.0000000000000000e+00 0.0000000000000000e+00 0.0000000000000000e+00  0.0000000000000000e+00 0.0000000000000000e+00 0.0000000000000000e+00  2.4076037980036873e-03 -4.7160909942423411e-02 0.0000000000000000e+00  -4.7119012140755645e-02 -1.6688042132683473e-03 0.0000000000000000e+00  -1.7924401365380836e-02 -4.6985013737450201e-03 0.0000000000000000e+00  2.9171299065847742e-02 -3.8232586425256621e-02 0.0000000000000000e+00  -4.7594491121968015e-02 -2.2420512334376058e-02 0.0000000000000000e+00  4.6910863138831277e-02 1.1576548600543879e-03 0.0000000000000000e+00  4.6363979717986239e-04 4.6530060938082971e-02 0.0000000000000000e+00  4.8214219770839010e-03 -1.7750178106121076e-02 0.0000000000000000e+00  0.0000000000000000e+00 0.0000000000000000e+00 0.0000000000000000e+00  5.1186275671401986e-02 -7.8617365454007994e-04 0.0000000000000000e+00  -4.3487720186331852e-03 -5.4930972456347163e-02 0.0000000000000000e+00  0.0000000000000000e+00 0.0000000000000000e+00 0.0000000000000000e+00  2.1462909153246282e-04 -5.1139061119083742e-02 0.0000000000000000e+00  0.0000000000000000e+00 0.0000000000000000e+00 0.0000000000000000e+00  2.9391835660911989e-04 5.1755123676060256e-02 0.0000000000000000e+00  -5.1910275266907238e-02 -4.4643683592523689e-04 0.0000000000000000e+00  0.0000000000000000e+00 0.0000000000000000e+00 0.0000000000000000e+00  0.0000000000000000e+00 0.0000000000000000e+00 0.0000000000000000e+00  0.0000000000000000e+00 0.0000000000000000e+00 0.0000000000000000e+00  3.5685818168304239e-05 -5.4915525760338001e-02 0.0000000000000000e+00  -7.7386250454081513e-05 5.4830448766586437e-02 0.0000000000000000e+00  5.4961951300843012e-02 1.5053618377056339e-05 0.0000000000000000e+00  5.4338052493490066e-02 -7.5944582939326422e-04 0.0000000000000000e+00  -5.4777494393546330e-02 -4.1526519978694680e-05 0.0000000000000000e+00  3.6624778896818747e-05 -5.4848096917699159e-02 0.0000000000000000e+00  7.7850789102231456e-05 5.4978329652456193e-02 0.0000000000000000e+00  -5.5039426238003626e-02 8.4288559836097629e-06 0.0000000000000000e+00  5.0408453990469268e-02 3.7732739614116358e-06 0.0000000000000000e+00  0.0000000000000000e+00 0.0000000000000000e+00 0.0000000000000000e+00  0.0000000000000000e+00 0.0000000000000000e+00 0.0000000000000000e+00  9.9031072561700474e-04 -5.2151752634520973e-02 0.0000000000000000e+00  -2.8735647674247173e-04 5.2308845603974162e-02 0.0000000000000000e+00  0.0000000000000000e+00 0.0000000000000000e+00 0.0000000000000000e+00  -5.3672409643385495e-02 6.0967547525428683e-04 0.0000000000000000e+00  0.0000000000000000e+00 0.0000000000000000e+00 0.0000000000000000e+00  0.0000000000000000e+00 0.0000000000000000e+00 0.0000000000000000e+00  5.3536919398473992e-02 2.0220321276358063e-04 0.0000000000000000e+00  -5.3158109077208728e-02 -5.2545625370989395e-05 0.0000000000000000e+00  0.0000000000000000e+00 0.0000000000000000e+00 0.0000000000000000e+00  0.0000000000000000e+00 0.0000000000000000e+00 0.0000000000000000e+00  -2.5742371276691826e-02 -4.0533802281078682e-02 0.0000000000000000e+00  -8.7307283782077504e-05 -5.5021232863213212e-02 0.0000000000000000e+00  -5.4799639083232758e-02 1.1712786781184604e-04 0.0000000000000000e+00  5.4929409311753698e-02 -1.3369057090718070e-05 0.0000000000000000e+00  4.9507544650305954e-05 5.4948689275304254e-02 0.0000000000000000e+00  -5.2326542978434018e-02 -2.2734109507981988e-04 0.0000000000000000e+00  2.7441627248711619e-04 5.2019218720901275e-02 0.0000000000000000e+00  -1.2253851499414956e-04 5.1141946992502969e-02 0.0000000000000000e+00  1.7548807606691667e-04 -5.1645495270439636e-02 0.0000000000000000e+00  6.5367218121362050e-05 -5.4871861793096811e-02 0.0000000000000000e+00  0.0000000000000000e+00 0.0000000000000000e+00 0.0000000000000000e+00  6.5918570290865543e-06 -5.4889113536659720e-02 0.0000000000000000e+00  -2.8823438647439695e-02 5.6257749463279614e-03 0.0000000000000000e+00  -4.3082935129009410e-02 2.8750644731927878e-02 0.0000000000000000e+00  5.0135136245160722e-02 2.3035478860060535e-02 0.0000000000000000e+00  -3.5962553596156463e-03 -5.1966658738958844e-02 0.0000000000000000e+00  1.5609814502399892e-02 -1.0739983327160027e-04 0.0000000000000000e+00  -5.2362415337491551e-02 -4.4651565871887353e-04 0.0000000000000000e+00  1.7926627114616171e-05 -5.2173329572324824e-02 0.0000000000000000e+00  -4.6867450588729297e-04 5.2332806142826087e-02 0.0000000000000000e+00  5.1909690971677962e-02 9.7757642534655642e-05 0.0000000000000000e+00  5.2463308935726642e-02 8.4654091444941130e-05 0.0000000000000000e+00  4.1987898823871866e-04 5.4235974054962818e-02 0.0000000000000000e+00  5.2964327536723282e-02 7.5236068611287538e-04 0.0000000000000000e+00  5.6843178585970594e-05 -5.4933357915750207e-02 0.0000000000000000e+00  4.2825199312593804e-05 5.4946598132205204e-02 0.0000000000000000e+00  5.4849164037400033e-02 2.8645522938758012e-05 0.0000000000000000e+00  -5.4881482281947537e-02 1.0463843267587513e-04 0.0000000000000000e+00  -5.1538276476348038e-02 4.6709823845208928e-04 0.0000000000000000e+00  -4.1802864850773886e-04 -5.4135734628493373e-02 0.0000000000000000e+00  -3.1517875008458401e-04 -5.1081432873692663e-02 0.0000000000000000e+00  -5.4188547126696920e-02 9.2790870157462421e-04 0.0000000000000000e+00  5.4993665652177927e-02 3.5608908860214263e-05 0.0000000000000000e+00  2.2763331479850874e-05 5.4979868873553404e-02 0.0000000000000000e+00  5.4175967648696761e-02 7.7810426200592732e-04 0.0000000000000000e+00  -6.5551211283920840e-03 3.4216876309237976e-02 0.0000000000000000e+00  0.0000000000000000e+00 0.0000000000000000e+00 0.0000000000000000e+00  0.0000000000000000e+00 0.0000000000000000e+00 0.0000000000000000e+00  0.0000000000000000e+00 0.0000000000000000e+00 0.0000000000000000e+00  -1.3291646873385471e-05 5.4959227859409591e-02 0.0000000000000000e+00  4.5429327359361022e-05 5.4789243450243705e-02 0.0000000000000000e+00  5.5180205200615719e-05 -5.4824354193643898e-02 0.0000000000000000e+00  -5.4915335247793282e-02 2.2451342866810107e-05 0.0000000000000000e+00  0.0000000000000000e+00 0.0000000000000000e+00 0.0000000000000000e+00  -2.7244485227306715e-05 -5.4908822909097738e-02 0.0000000000000000e+00  0.0000000000000000e+00 0.0000000000000000e+00 0.0000000000000000e+00  -5.0901284108548675e-02 -1.9065466284917254e-05 0.0000000000000000e+00  -7.7954410337126548e-05 -5.4893183924646843e-02 0.0000000000000000e+00  -3.9791393722454120e-03 5.0955204123860939e-02 0.0000000000000000e+00  -5.8359936745304552e-03 5.3642300808508216e-02 0.0000000000000000e+00  -5.5086313708757079e-02 7.4628733509002608e-06