<?xml version="1.0"?>
<VTKFile type="UnstructuredGrid"  version="0.1"  >
<UnstructuredGrid>
<Piece  NumberOfPoints="778" NumberOfCells="1401">
<Points>
<DataArray  type="Float64"  NumberOfComponents="3"  format="ascii">1 -1 0  6 -1 0  6 1 0  1 1 0  1 6 0  -1 6 0  -1 1 0  -6 1 0  -6 -1 0  -1 -1 0  -1 -6 0  1 -6 0  1 3.5 0  -1 3.5 0  -1 -3.5 0  1 -3.5 0  3.5 -1 0  3.5 1 0  -3.5 -1 0  -3.5 1 0  -1 -2.25 0  1 -2.25 0  2.25 -1 0  2.25 1 0  -1 2.25 0  1 2.25 0  -1 4.75 0  1 4.75 0  -4.75 -1 0  -4.75 1 0  -2.25 1 0  -2.25 -1 0  1 -4.75 0  -1 -4.75 0  4.75 1 0  4.75 -1 0  0 0 0  -2.875 0 0  -1.625 0 0  -4.125 0 0  -6 0 0  0 2.875 0  2.875 0 0  0 6 0  1.625 0 0  0 -2.875 0  0 -1.625 0  0 1.625 0  0 4.125 0  0 -6 0  0 -4.125 0  4.125 0 0  6 0 0  -0.109375 5.0625 0  -5.0625 -0.109375 0  -0.109375 -5.0625 0  5.0625 0.109375 0  0.8125 -0.1875 0  -0.1875 -0.8125 0  -0.8125 0.1875 0  -0.1875 0.8125 0  1 5.375 0  -5.375 1 0  1 -5.375 0  5.375 -1 0  0.53515625 0.46484375 0  -5.375 -1 0  -1 5.375 0  -1 -5.375 0  -0.5 -6 0  5.375 1 0  6 0.5 0  3.5 0.3046875 0  3.43125 -0.34765625 0  2.875 -1 0  4.125 1 0  0.3046875 3.5 0  -0.34765625 3.56875 0  -1 4.125 0  1 4.125 0  -0.3046875 2.25 0  0.34765625 2.18125 0  1 1.625 0  -1 -1.625 0  -0.3046875 -3.5 0  0.34765625 -3.56875 0  1 -4.125 0  0.3046875 -2.25 0  -0.34765625 -2.18125 0  -1 -4.125 0  -1 -2.875 0  1 -2.875 0  1 -1.625 0  1.625 -1 0  1.625 1 0  2.25 0.3046875 0  2.18125 -0.34765625 0  4.125 -1 0  2.875 1 0  1 2.875 0  -1 1.625 0  -1 2.875 0  -4.125 -1 0  -2.25 0.3046875 0  -2.31875 -0.34765625 0  -2.875 -1 0  -1.625 1 0  -4.125 1 0  -3.5 0.3046875 0  -3.56875 -0.34765625 0  -1.625 -1 0  -2.875 1 0  0.380626321794301 1.06853329530276 0  -1.110819327731092 -0.3739495798319328 0  0.3739495798319328 -1.110819327731092 0  1.151210293219304 0.3991939332620648 0  -0.5 -4.4375 0  0.5 -4.4375 0  5.481553398058253 -0.3712833737864077 0  0.5 4.4375 0  0.5 6 0  -0.522503783594538 -0.3265648647465863 0  -1.3125 0.5 0  -0.5 6 0  0.3265648647465863 -0.522503783594538 0  4.4375 0.5 0  4.4375 -0.5 0  0.5 -6 0  -6 -0.5 0  -5.481553398058253 0.3712833737864077 0  -4.55 -0.4296875 0  -4.4375 0.5 0  -0.5 4.4375 0  0.4792930825242718 5.026881067961165 0  0.4792930825242718 -5.026881067961165 0  -0.5 1.3125 0  1.3125 -0.5 0  -0.5 -1.3125 0  0.25 5.518539952962044 0  0.2125133872612723 -5.500076563152851 0  4.969341874373811 -0.5152550785163683 0  -4.969341874373811 0.5152550785163683 0  3.927189744345589 -0.4712876597840069 0  -5.554036458333333 -0.25 0  5.554036458333333 0.25 0  -0.4690710616438356 -5.462756849315069 0  -0.4690710616438356 5.462756849315069 0  -6 0.5 0  -1.59556436210848 -0.5 0  -3.058421751829955 -0.5 0  -0.5 2.731982421875 0  0.5 2.691578248170045 0  2.691578248170045 -0.5 0  1.641211254104555 0.5 0  0.5 -1.768017578125 0  0.5 -3.058421751829955 0  0.5 1.699267578125 0  3.018017578125 0.5 0  -0.5 -3.018017578125 0  -2.731982421875 0.5 0  6 -0.5 0  -4.050017120925308 -0.5006099332648871 0  -3.940668202764977 0.5371363767281105 0  3.940668202764977 0.5371363767281105 0  0.4517449476047904 3.958458083832335 0  -0.4517449476047904 -3.958458083832335 0  -1.809331797235023 0.5371363767281105 0  -0.4517449476047904 1.791541916167665 0  -0.0546875 4.59375 0  -5.006445312499999 -0.58984375 0  4.605643203883496 -0.04725424757281554 0  4.90625 0.5546875 0  -0.5546875 4.90625 0  0.04725424757281554 -4.605643203883496 0  -0.586116118210531 -4.995821561900013 0  -4.603710222472543 0.04846236095466061 0  -3.1875 0.65234375 0  0.6163907621110913 3.147502300973589 0  2.5625 0.65234375 0  0.6163907621110913 -2.602497699026411 0  -0.637456713551384 3.189259902731882 0  -0.637456713551384 -2.560740097268118 0  -0.34765625 0.34765625 0  -0.639453125 0.708203125 0  0.089630126953125 0.437286376953125 0  -0.4238281249999999 -1.746875 0  1.746875 -0.4238281249999999 0  -0.4238281249999999 4.003125 0  0.4238281249999999 -4.003125 0  -2.5625 -1 0  3.1875 -1 0  -0.09375 -1.21875 0  1.21875 -0.09375 0  0.4020305405760241 -0.1120343241705621 0  -0.6280191027904287 -0.7577505545748082 0  0.90625 -0.59375 0  -1.205500904741459 0.03633725387965409 0  -0.02129048848213058 1.202028574265107 0  -0.1120343241705621 -0.4020305405760241 0  1 1.3125 0  -2.003587563743074 -0.6442361556699288 0  0.6640077663259718 -1.395873598614549 0  5.6875 -1 0  0.6308138580859101 -5.592151086468728 0  -5.6875 -1 0  0.6568032075915271 5.612942566073222 0  5.616530031741774 0.6612875396772174 0  -5.6875 1 0  1.9375 1 0  -1.3125 -1 0  0.1524679547155687 -3.232579139388032 0  0.1524679547155687 2.517420860611968 0  -3.232579139388032 -0.1524679547155687 0  -1.932320553757026 -0.252759244693845 0  2.517420860611968 -0.1524679547155687 0  -0.04776045819569434 -2.464949198504599 0  -0.2420369079104247 3.187693796852321 0  3.751304711039982 -0.1203080877045035 0  -5.397601941771943 -0.609026059866711 0  1.3125 1 0  1.9375 -1 0  -0.6946315101963667 -2.018229242739021 0  -0.6946315101963667 3.731770757260979 0  1 -3.8125 0  2.014364435550335 0.6166648446293641 0  -1 5.6875 0  -1 -5.6875 0  -2.653476149871182 -0.5942957192996303 0  3.096523850128818 -0.5942957192996303 0  1 1.9375 0  -3.8125 -1 0  0.586975531244212 -0.7975955463807081 0  -0.2946248980953088 -4.743710873809568 0  2.625453376770019 0.2814788818359375 0  -3.124546623229981 0.2814788818359375 0  -0.1204856417894853 5.631800603217465 0  5.253862011026742 0.6581468962876398 0  -0.65234375 2.108701557941197 0  0.65234375 3.641298442058803 0  -0.65234375 -3.641298442058803 0  -0.25 -5.744880569758637 0  -4.4375 -1 0  -0.3166212631734941 -2.713595940002554 0  0.6591479224207506 0.1324305912687024 0  0.8660781906552419 0.6468634238104103 0  -0.9887189158197679 0.6452930723873549 0  0.3149351927204296 -1.460971774996065 0  -0.3572852727880474 -0.009629022788047503 0  2.09375 -0.6866724363772454 0  0.6866724363772454 -3.65625 0  0.6866724363772454 2.09375 0  -3.65625 -0.6866724363772454 0  -3.5371337890625 0.65234375 0  -0.1389584113023952 1.944025352615082 0  -2.151744288472698 0.65234375 0  -0.1389584113023951 -3.805974647384918 0  0.1389584113023951 3.805974647384918 0  -2.578772109813904 0.1857224367977529 0  3.171227890186096 0.1857224367977529 0  3.360315647536819 0.65234375 0  0.1857224367977528 -1.921227890186096 0  0.65234375 -2.110315647536819 0  1.894016528727564 0.2415406141485869 0  -3.738232421875 0 0  0.2516875549238616 3.139069895099618 0  -1.913724396854074 0.2011142179916434 0  0.1669456568161915 0.7843410671359501 0  -2.5625 1 0  -1 -3.1875 0  -1 2.5625 0  0.1736601499778735 4.857955663330752 0  -0.1893536587212888 2.577300639071919 0  -0.1893536587212888 -3.172699360928081 0  3.852271904453858 0.206603749322895 0  -3.8125 1 0  -0.1250095034621793 -5.421707592768541 0  3.8125 -1 0  3.617304217264373 -0.6578427703661498 0  0.2630176195580202 -2.636558318495885 0  0.2674330357770522 1.399517071108871 0  0.631726413079416 1.339254523727593 0  4.700571879807737 0.2813704945051134 0  0.7143844363649634 -3.319538455208831 0  2.430461544791169 -0.7143844363649634 0  0.7143844363649634 2.430461544791169 0  -3.319538455208831 -0.7143844363649634 0  5.687045771608623 -0.6520598572553891 0  -5.687045771608623 0.6520598572553891 0  -1.15625 -0.7048248829733235 0  3.438284572973296 -0.01860298867862281 0  -0.03021088078697859 3.451572359862192 0  2.216682837011589 -0.02159585961918548 0  -2.191580885932936 -0.03126387444658879 0  0.1857410764408683 1.895679405349457 0  3.103473238297955 -0.253270943723272 0  -2.646526761702045 -0.253270943723272 0  -2.333137350671861 -0.6791984914172315 0  -1 5.0625 0  -0.6971235589909319 5.213002544375844 0  0.01618705363819947 2.225929180591695 0  0.01618705363819947 -3.524070819408305 0  0.5690054882403073 0.7951310720450595 0  -0.5764940424412852 -3.329579265180942 0  -0.5764940424412852 2.420420734819058 0  3.8125 1 0  -5.372163860234628 0.04365139563106807 0  5.164108319316826 -0.225040894204947 0  -5.361952437854323 0.6744012088984681 0  -5.0625 1 0  5.286835586913878 -0.6616705837083201 0  -5.692815197359722 0.1186699900166531 0  5.663425996156958 -0.07763197815533956 0  -0.9219866027132193 -0.1143045829323572 0  -1.394333629759332 -0.2233077430199216 0  0.09322478991596644 -0.9616596638655462 0  5.0625 -1 0  -0.14412109375 -1.92169189453125 0  -4.28125 -0.7212148987671345 0  0.2649796277366407 0.1735162902120744 0  -4.907855692236596 0.1868230509619793 0  -1.9375 1 0  1 5.0625 0  0.6915124486819284 -5.272938212550202 0  0.683483242673902 5.284948082526911 0  2.5625 -1 0  -1 -3.8125 0  -1 1.9375 0  5.0625 1 0  -1 -1.9375 0  1 5.6875 0  1 -5.6875 0  -1.9375 -1 0  -1 -2.5625 0  -1 3.1875 0  1 -3.1875 0  1 -2.5625 0  1 2.5625 0  1 3.1875 0  -5.0625 -1 0  -1 -1.3125 0  1.3125 -1 0  -1 1.3125 0  -1 3.8125 0  -1 4.4375 0  -4.4375 1 0  4.4375 -1 0  4.4375 1 0  -1.3125 1 0  1 4.4375 0  1 -4.4375 0  -1 -5.0625 0  -1 -4.4375 0  -3.1875 1 0  2.5625 1 0  1 -1.9375 0  1 -1.3125 0  5.6875 1 0  1 3.8125 0  3.1875 1 0  -3.1875 -1 0  1 -5.0625 0  1.35138038998199 0.6675097549271188 0  -0.465625 0.986328125 0  1.435958105992309 0.2563920171199723 0  1.915914614192913 -0.145782394639918 0  -0.8764440609469509 -0.5746869313612541 0  5.355194559946098 0.01566259380337612 0  -5.69333042954964 -0.5242868300459975 0  1.78125 -0.7320750794491524 0  0.7320750794491525 -3.96875 0  -0.3959075548864684 5.166422468926435 0  -4.770522389068053 -0.2123670725088856 0  -4.714160156249999 -0.69234375 0  -4.273484403713342 -0.278160994327167 0  0.9642590244517505 0.08196089404241463 0  0.3500261717645397 -4.727285205957206 0  0.6740868006020392 -4.765147848348443 0  0.6797550207247084 -1.089747806381148 0  -5.186479934354063 0.3046329157552757 0  -5.263288238215326 -0.3369092276308425 0  -2.433484016245305 0.5442571297016638 0  0.1707808983307866 -3.82363304980935 0  -0.1554012991031027 3.867535742674252 0  4.855508096805579 -0.2283975605264581 0  3.644517238097614 0.5646428152488787 0  0.05699603874439441 -0.6452791208413911 0  -0.3550018917972689 -0.5695324323732931 0  0.6
[...]
<PointData  Vectors="u"> 
<DataArray  type="Float64"  Name="u"  NumberOfComponents="3" format="ascii">0.0000000000000000e+00 0.0000000000000000e+00 0.0000000000000000e+00  0.0000000000000000e+00 0.0000000000000000e+00 0.0000000000000000e+00  0.0000000000000000e+00 0.0000000000000000e+00 0.0000000000000000e+00  0.0000000000000000e+00 0.0000000000000000e+00 0.0000000000000000e+00  0.0000000000000000e+00 0.0000000000000000e+00 0.0000000000000000e+00  0.0000000000000000e+00 0.0000000000000000e+00 0.0000000000000000e+00  0.0000000000000000e+00 0.0000000000000000e+00 0.0000000000000000e+00  0.0000000000000000e+00 0.0000000000000000e+00 0.0000000000000000e+00  0.0000000000000000e+00 0.0000000000000000e+00 0.0000000000000000e+00  0.0000000000000000e+00 0.0000000000000000e+00 0.0000000000000000e+00  0.0000000000000000e+00 0.0000000000000000e+00 0.0000000000000000e+00  0.0000000000000000e+00 0.0000000000000000e+00 0.0000000000000000e+00  0.0000000000000000e+00 0.0000000000000000e+00 0.0000000000000000e+00  0.0000000000000000e+00 0.0000000000000000e+00 0.0000000000000000e+00  0.0000000000000000e+00 0.0000000000000000e+00 0.0000000000000000e+00  0.0000000000000000e+00 0.0000000000000000e+00 0.0000000000000000e+00  0.0000000000000000e+00 0.0000000000000000e+00 0.0000000000000000e+00  0.0000000000000000e+00 0.0000000000000000e+00 0.0000000000000000e+00  0.0000000000000000e+00 0.0000000000000000e+00 0.0000000000000000e+00  0.0000000000000000e+00 0.0000000000000000e+00 0.0000000000000000e+00  0.0000000000000000e+00 0.0000000000000000e+00 0.0000000000000000e+00  0.0000000000000000e+00 0.0000000000000000e+00 0.0000000000000000e+00  0.0000000000000000e+00 0.0000000000000000e+00 0.0000000000000000e+00  0.0000000000000000e+00 0.0000000000000000e+00 0.0000000000000000e+00  0.0000000000000000e+00 0.0000000000000000e+00 0.0000000000000000e+00  0.0000000000000000e+00 0.0000000000000000e+00 0.0000000000000000e+00  0.0000000000000000e+00 0.0000000000000000e+00 0.0000000000000000e+00  0.0000000000000000e+00 0.0000000000000000e+00 0.0000000000000000e+00  0.0000000000000000e+00 0.0000000000000000e+00 0.0000000000000000e+00  0.0000000000000000e+00 0.0000000000000000e+00 0.0000000000000000e+00  0.0000000000000000e+00 0.0000000000000000e+00 0.0000000000000000e+00  0.0000000000000000e+00 0.0000000000000000e+00 0.0000000000000000e+00  0.0000000000000000e+00 0.0000000000000000e+00 0.0000000000000000e+00  0.0000000000000000e+00 0.0000000000000000e+00 0.0000000000000000e+00  0.0000000000000000e+00 0.0000000000000000e+00 0.0000000000000000e+00  0.0000000000000000e+00 0.0000000000000000e+00 0.0000000000000000e+00  -1.7847343336220320e-04 7.3243295694156907e-05 0.0000000000000000e+00  3.5399168117689450e-02 -9.3657985357977488e-06 0.0000000000000000e+00  3.3737135767692362e-02 6.7131576867052680e-05 0.0000000000000000e+00  3.5432607328722165e-02 1.6171753914230177e-06 0.0000000000000000e+00  3.5464263604605022e-02 2.8081689337616649e-05 0.0000000000000000e+00  8.7156810648574821e-06 3.5369940492230585e-02 0.0000000000000000e+00  -3.5324730802818942e-02 3.5653737653892232e-05 0.0000000000000000e+00  2.9682255115930773e-05 3.5347536873137513e-02 0.0000000000000000e+00  -3.3809344823774644e-02 9.9142402416605091e-05 0.0000000000000000e+00  8.0297836073791329e-06 -3.5357379741915274e-02 0.0000000000000000e+00  -2.7975279014648133e-05 -3.3609453850716897e-02 0.0000000000000000e+00  3.2443830341876245e-05 3.3578581087300975e-02 0.0000000000000000e+00  3.1488955413009490e-05 3.5359000269227926e-02 0.0000000000000000e+00  3.0990575639709842e-05 -3.5358628294123090e-02 0.0000000000000000e+00  4.8302730775822172e-05 -3.5406033704177227e-02 0.0000000000000000e+00  -3.5444826840595113e-02 -9.1321909123519740e-06 0.0000000000000000e+00  -3.5400594607142531e-02 -3.3613256009751225e-05 0.0000000000000000e+00  -4.1417715138315401e-05 3.5448320313879220e-02 0.0000000000000000e+00  3.5379518370273248e-02 -3.9298750840649646e-05 0.0000000000000000e+00  -5.5194284405670063e-05 -3.5192960682485966e-02 0.0000000000000000e+00  -3.5295034828884540e-02 -4.1279467207274993e-05 0.0000000000000000e+00  -2.2820421244145069e-02 -4.8051598943612290e-03 0.0000000000000000e+00  4.5306008211838458e-03 -2.2377270737368917e-02 0.0000000000000000e+00  2.2303804177380197e-02 4.7753494019276439e-03 0.0000000000000000e+00  4.7680033279494756e-03 2.2412762924936221e-02 0.0000000000000000e+00  0.0000000000000000e+00 0.0000000000000000e+00 0.0000000000000000e+00  0.0000000000000000e+00 0.0000000000000000e+00 0.0000000000000000e+00  0.0000000000000000e+00 0.0000000000000000e+00 0.0000000000000000e+00  0.0000000000000000e+00 0.0000000000000000e+00 0.0000000000000000e+00  -1.5742406415024821e-02 1.3184135836807834e-02 0.0000000000000000e+00  0.0000000000000000e+00 0.0000000000000000e+00 0.0000000000000000e+00  0.0000000000000000e+00 0.0000000000000000e+00 0.0000000000000000e+00  0.0000000000000000e+00 0.0000000000000000e+00 0.0000000000000000e+00  5.6897571328676264e-05 -3.3739740588377927e-02 0.0000000000000000e+00  0.0000000000000000e+00 0.0000000000000000e+00 0.0000000000000000e+00  -3.5289643527933720e-02 -1.4129371757480096e-06 0.0000000000000000e+00  -3.5270663027095327e-02 5.1323349758526418e-05 0.0000000000000000e+00  -3.5178382231017359e-02 -1.5334874316115096e-07 0.0000000000000000e+00  0.0000000000000000e+00 0.0000000000000000e+00 0.0000000000000000e+00  0.0000000000000000e+00 0.0000000000000000e+00 0.0000000000000000e+00  1.7245893876744072e-05 3.5303295134931134e-02 0.0000000000000000e+00  -8.9558735524068560e-06 3.5339450210988374e-02 0.0000000000000000e+00  0.0000000000000000e+00 0.0000000000000000e+00 0.0000000000000000e+00  0.0000000000000000e+00 0.0000000000000000e+00 0.0000000000000000e+00  1.7315615697630063e-04 3.5051338520523910e-02 0.0000000000000000e+00  -2.7712911663924501e-04 3.5187801631546875e-02 0.0000000000000000e+00  0.0000000000000000e+00 0.0000000000000000e+00 0.0000000000000000e+00  0.0000000000000000e+00 0.0000000000000000e+00 0.0000000000000000e+00  4.6911905650479651e-05 -3.5224903495025071e-02 0.0000000000000000e+00  1.2092735768289703e-05 -3.5337936795906445e-02 0.0000000000000000e+00  0.0000000000000000e+00 0.0000000000000000e+00 0.0000000000000000e+00  -1.5993596307988466e-04 -3.5219026365584785e-02 0.0000000000000000e+00  3.3839988355276434e-04 -3.5162293653075230e-02 0.0000000000000000e+00  0.0000000000000000e+00 0.0000000000000000e+00 0.0000000000000000e+00  0.0000000000000000e+00 0.0000000000000000e+00 0.0000000000000000e+00  0.0000000000000000e+00 0.0000000000000000e+00 0.0000000000000000e+00  0.0000000000000000e+00 0.0000000000000000e+00 0.0000000000000000e+00  0.0000000000000000e+00 0.0000000000000000e+00 0.0000000000000000e+00  0.0000000000000000e+00 0.0000000000000000e+00 0.0000000000000000e+00  -3.4989765134752618e-02 2.5638112283673728e-04 0.0000000000000000e+00  -3.5161938304038000e-02 -2.3987933844396800e-04 0.0000000000000000e+00  0.0000000000000000e+00 0.0000000000000000e+00 0.0000000000000000e+00  0.0000000000000000e+00 0.0000000000000000e+00 0.0000000000000000e+00  0.0000000000000000e+00 0.0000000000000000e+00 0.0000000000000000e+00  0.0000000000000000e+00 0.0000000000000000e+00 0.0000000000000000e+00  0.0000000000000000e+00 0.0000000000000000e+00 0.0000000000000000e+00  0.0000000000000000e+00 0.0000000000000000e+00 0.0000000000000000e+00  3.5042635322854732e-02 2.8201619855196047e-04 0.0000000000000000e+00  3.5133009762845002e-02 -2.0956507170847698e-04 0.0000000000000000e+00  0.0000000000000000e+00 0.0000000000000000e+00 0.0000000000000000e+00  0.0000000000000000e+00 0.0000000000000000e+00 0.0000000000000000e+00  0.0000000000000000e+00 0.0000000000000000e+00 0.0000000000000000e+00  3.5057649458915513e-02 5.9051290516106351e-05 0.0000000000000000e+00  3.5365414882244733e-02 1.7116091654998326e-05 0.0000000000000000e+00  0.0000000000000000e+00 0.0000000000000000e+00 0.0000000000000000e+00  0.0000000000000000e+00 0.0000000000000000e+00 0.0000000000000000e+00  -6.5698080905799263e-03 2.9537777909242155e-02 0.0000000000000000e+00  3.0464976239934473e-02 -6.5627877635796019e-03 0.0000000000000000e+00  -6.1214615295807073e-03 -3.0798999926430645e-02 0.0000000000000000e+00  -3.1135492521416296e-02 5.8316138635825070e-03 0.0000000000000000e+00  4.1016623800449157e-05 -3.3566911625536315e-02 0.0000000000000000e+00  -5.0724032346372589e-06 -3.5337508386014571e-02 0.0000000000000000e+00  -3.5243686652625832e-02 -4.2164384986047725e-05 0.0000000000000000e+00  7.9791913747843024e-07 3.5280242415700748e-02 0.0000000000000000e+00  5.0733302377781421e-05 3.5160650606995310e-02 0.0000000000000000e+00  1.4876974742250115e-02 -9.3163846345177496e-03 0.0000000000000000e+00  3.3879911868166503e-02 4.8297744824771010e-03 0.0000000000000000e+00  3.6525335340671735e-05 3.3712124601162463e-02 0.0000000000000000e+00  -8.8296250682681487e-03 -1.4769391408599786e-02 0.0000000000000000e+00  -3.5095399478879991e-02 7.9712553416532952e-06 0.0000000000000000e+00  -3.5364444111243905e-02 1.0109771162656257e-05 0.0000000000000000e+00  4.5750111623569180e-05 -3.5111994614416463e-02 0.0000000000000000e+00  3.5421516580720909e-02 7.5662333200486140e-06 0.0000000000000000e+00  3.5175461427957716e-02 4.1890128768712246e-05 0.0000000000000000e+00  3.5354892315598845e-02 5.9341048873805907e-06 0.0000000000000000e+00  3.3380018110672385e-02 -1.2816916746941757e-05 0.0000000000000000e+00  3.2285300396693821e-05 3.5090291693348888e-02 0.0000000000000000e+00  -3.6547729279490361e-05 3.5350012909789529e-02 0.0000000000000000e+00  -1.9505497244930622e-05 -3.5250445156687328e-02 0.0000000000000000e+00  5.3758426067230039e-03 3.4946560038847552e-02 0.0000000000000000e+00  -3.4268572571449753e-02 -5.0172655759990270e-03 0.0000000000000000e+00  4.7870606715562551e-03 -3.3918352531238018e-02 0.0000000000000000e+00  2.4933435640617991e-05 3.5303097854809409e-02 0.0000000000000000e+00  -1.6597671729876608e-05 -3.5431012404586300e-02 0.0000000000000000e+00  -3.5399707915014941e-02 -5.8313907716590412e-05 0.0000000000000000e+00  3.3613847098305213e-02 1.3493632722052733e-05 0.0000000000000000e+00  -3.5212279495754895e-02 -1.8243605894041873e-05 0.0000000000000000e+00  3.5251479392378868e-02 -2.6372911132524003e-05 0.0000000000000000e+00  -3.5333740572524856e-02 -9.6625469061169508e-05 0.0000000000000000e+00  6.0373220926004226e-06 -3.5180618368996761e-02 0.0000000000000000e+00  5.3024106491504426e-06 3.5172958913941642e-02 0.0000000000000000e+00  3.4101036852537438e-02 9.0690918654294319e-05 0.0000000000000000e+00  3.5099473269158965e-02 -1.9244037850388790e-03 0.0000000000000000e+00  3.5303126478806700e-02 3.7811582874950974e-06 0.0000000000000000e+00  1.0132930440014607e-05 3.5257215621770553e-02 0.0000000000000000e+00  -7.6880452370265307e-05 3.5135586453813122e-02 0.0000000000000000e+00  -3.5249424457633100e-02 -1.5058846232648856e-05 0.0000000000000000e+00  -3.5150098621725148e-02 1.9388490540432437e-03 0.0000000000000000e+00  -1.2329136786182002e-03 -3.5069445191785183e-02 0.0000000000000000e+00  6.1728216988973706e-06 -3.5152373843031874e-02 0.0000000000000000e+00  -1.3809885472922155e-03 3.5329524868643679e-02 0.0000000000000000e+00  -3.5264442808635471e-02 8.4561241496824890e-05 0.0000000000000000e+00  5.8137178900375853e-05 -3.5205257651455338e-02 0.0000000000000000e+00  3.5175516457439104e-02 4.2719794549843346e-06 0.0000000000000000e+00  -3.3900505151575076e-02 -1.8683378352378321e-05 0.0000000000000000e+00  3.5356096537968375e-02 -3.9001961267363021e-06 0.0000000000000000e+00  3.3738788312610776e-02 -1.2537692619525272e-04 0.0000000000000000e+00  -3.3754114106486557e-02 -2.6514903140271789e-04 0.0000000000000000e+00  3.2810799204275905e-05 3.5198401126633111e-02 0.0000000000000000e+00  5.6756739771807489e-05 -3.5172859613054011e-02 0.0000000000000000e+00  3.3634128299882472e-02 1.0124172697693050e-03 0.0000000000000000e+00  1.1032044962666558e-03 3.4811248524571591e-02 0.0000000000000000e+00  4.2582208001008636e-05 3.5375057805928402e-02 0.0000000000000000e+00  3.4031975404248981e-02 2.0650809448225550e-05 0.0000000000000000e+00  -3.5425840107911236e-02 -8.1164808650495409e-06 0.0000000000000000e+00  -3.1103147899155213e-02 6.5148312654978317e-05 0.0000000000000000e+00  4.0651311990270737e-05 3.0190963148388945e-02 0.0000000000000000e+00  -7.1404961796965087e-06 -3.5440881230185566e-02 0.0000000000000000e+00  -1.2307487194492100e-04 -3.0711857391685325e-02 0.0000000000000000e+00  3.5437521185907525e-02 -2.1601832057428303e-05 0.0000000000000000e+00  3.0492602333645064e-02 6.1873668116577777e-05 0.0000000000000000e+00  1.0748138510402532e-05 3.1307888147714250e-02 0.0000000000000000e+00  -3.4529876810888122e-02 2.1046727954161158e-04 0.0000000000000000e+00  -8.4157604568680234e-05 -3.1272150886319156e-02 0.0000000000000000e+00  1.3529880183873924e-04 3.1457749380437001e-02 0.0000000000000000e+00  -3.4236982216140780e-05 -3.1275688903740710e-02 0.0000000000000000e+00  9.7629133339708386e-03 9.5339861690483113e-03 0.0000000000000000e+00  1.8500615345002976e-02 2.1454039376649640e-02 0.0000000000000000e+00  -2.4702889348843446e-03 1.2250027413905809e-02 0.0000000000000000e+00  1.3145521871794029e-03 -3.4834083679354713e-02 0.0000000000000000e+00  -3.4751430465381622e-02 -1.1754507295844195e-03 0.0000000000000000e+00  -1.8245248841804898e-05 3.5131560347458478e-02 0.0000000000000000e+00  6.3360910596265351e-06 -3.5197243448951865e-02 0.0000000000000000e+00  0.0000000000000000e+00 0.0000000000000000e+00 0.0000000000000000e+00  0.0000000000000000e+00 0.0000000000000000e+00 0.0000000000000000e+00  1.5903728404784770e-03 -3.0081850733309299e-02 0.0000000000000000e+00  -3.0174644897225125e-02 -1.0047382068557630e-03 0.0000000000000000e+00  -1.1422558074753821e-02 -2.9496575309135306e-03 0.0000000000000000e+00  1.8841295083948266e-02 -2.4410012204959634e-02 0.0000000000000000e+00  -3.0290311356341110e-02 -1.4681530547695398e-02 0.0000000000000000e+00  3.0097491446663800e-02 8.3549172927134313e-04 0.0000000000000000e+00  2.4004471562777451e-04 2.9745508753138750e-02 0.0000000000000000e+00  3.0344949511369955e-03 -1.1310521945518487e-02 0.0000000000000000e+00  0.0000000000000000e+00 0.0000000000000000e+00 0.0000000000000000e+00  3.1719126776961003e-02 -5.1154445768584512e-04 0.0000000000000000e+00  -3.4574036508248029e-03 -3.5107959769770235e-02 0.0000000000000000e+00  0.0000000000000000e+00 0.0000000000000000e+00 0.0000000000000000e+00  1.3553754735740181e-04 -3.1572668107416248e-02 0.0000000000000000e+00  0.0000000000000000e+00 0.0000000000000000e+00 0.0000000000000000e+00  1.7785113940757311e-04 3.2149064443106196e-02 0.0000000000000000e+00  -3.2267366526037608e-02 -2.7081224885011857e-04 0.0000000000000000e+00  0.0000000000000000e+00 0.0000000000000000e+00 0.0000000000000000e+00  0.0000000000000000e+00 0.0000000000000000e+00 0.0000000000000000e+00  0.0000000000000000e+00 0.0000000000000000e+00 0.0000000000000000e+00  2.1552592486967504e-05 -3.5361849703603329e-02 0.0000000000000000e+00  -5.8992331381425481e-05 3.5294174088669146e-02 0.0000000000000000e+00  3.5404106143426713e-02 9.2073530406108260e-06 0.0000000000000000e+00  3.4891891928561895e-02 -5.2789051410509263e-04 0.0000000000000000e+00  -3.5270830921950359e-02 -3.0703122820330458e-05 0.0000000000000000e+00  2.4683980050194666e-05 -3.5304444643425546e-02 0.0000000000000000e+00  4.4077584516487971e-05 3.5276067498448020e-02 0.0000000000000000e+00  -3.5442865357024830e-02 6.4642363378340470e-06 0.0000000000000000e+00  3.0925577021842197e-02 1.1159256293488809e-06 0.0000000000000000e+00  0.0000000000000000e+00 0.0000000000000000e+00 0.0000000000000000e+00  0.0000000000000000e+00 0.0000000000000000e+00 0.0000000000000000e+00  6.9871567205359380e-04 -3.2316285727855172e-02 0.0000000000000000e+00  -1.7268673813464715e-04 3.2336853195703480e-02 0.0000000000000000e+00  0.0000000000000000e+00 0.0000000000000000e+00 0.0000000000000000e+00  -3.4216762838286154e-02 4.4439255797158094e-04 0.0000000000000000e+00  0.0000000000000000e+00 0.0000000000000000e+00 0.0000000000000000e+00  0.0000000000000000e+00 0.0000000000000000e+00 0.0000000000000000e+00  3.4264515965490037e-02 1.0980289891292235e-04 0.0000000000000000e+00  -3.4006543893868646e-02 -4.1721782168207064e-05 0.0000000000000000e+00  0.0000000000000000e+00 0.0000000000000000e+00 0.0000000000000000e+00  0.0000000000000000e+00 0.0000000000000000e+00 0.0000000000000000e+00  -1.6489145780714733e-02 -2.5822697324099510e-02 0.0000000000000000e+00  -3.8479615618384309e-05 -3.5170688227013719e-02 0.0000000000000000e+00  -3.5163696267321874e-02 1.0016248231047916e-04 0.0000000000000000e+00  3.5294216024486867e-02 -6.3357331499315326e-07 0.0000000000000000e+00  3.0309622648613174e-05 3.5397440837807964e-02 0.0000000000000000e+00  -3.2324262789894927e-02 -1.5822008693209736e-04 0.0000000000000000e+00  1.9332744546715120e-04 3.2009032831363048e-02 0.0000000000000000e+00  -3.8446699370460908e-05 3.1670196611355124e-02 0.0000000000000000e+00  1.0461003501736018e-04 -3.1803459350335017e-02 0.0000000000000000e+00  3.9432149268471340e-05 -3.5185136908519592e-02 0.0000000000000000e+00  0.0000000000000000e+00 0.0000000000000000e+00 0.0000000000000000e+00  4.5977502836850468e-06 -3.5141495526333562e-02 0.0000000000000000e+00  -1.8265299889408521e-02 3.6675909152593215e-03 0.0000000000000000e+00  -2.7469777778899918e-02 1.8467584435095601e-02 0.0000000000000000e+00  3.1855811422718275e-02 1.4864895429861989e-02 0.0000000000000000e+00  -2.4834235499666853e-03 -3.3287053768795240e-02 0.0000000000000000e+00  9.8841511763179454e-03 7.6870949629619719e-05 0.0000000000000000e+00  -3.2555042493563287e-02 -3.1362027261405581e-04 0.0000000000000000e+00  1.2008838372230240e-05 -3.2499679436341689e-02 0.0000000000000000e+00  -3.3085949857234354e-04 3.2530313078969066e-02 0.0000000000000000e+00  3.2216584089720425e-02 4.9837239524006089e-05 0.0000000000000000e+00  3.2325769600471212e-02 2.3689013543266683e-05 0.0000000000000000e+00  2.8438425482856541e-04 3.4877034488134902e-02 0.0000000000000000e+00  3.2512765399218282e-02 5.5099713496208687e-04 0.0000000000000000e+00  4.4851913154548248e-05 -3.5380197431240115e-02 0.0000000000000000e+00  3.0844737423179342e-05 3.5390248007445363e-02 0.0000000000000000e+00  3.5242194805839934e-02 3.2212160040147011e-05 0.0000000000000000e+00  -3.5361073768564032e-02 6.6344736345467009e-05 0.0000000000000000e+00  -3.1612291037021817e-02 2.6960478363913536e-04 0.0000000000000000e+00  -2.7562719733437548e-04 -3.4822010309200686e-02 0.0000000000000000e+00  -2.4289183805255421e-04 -3.1354035834717853e-02 0.0000000000000000e+00  -3.4828075565371784e-02 6.6453699807200067e-04 0.0000000000000000e+00  3.5418218464243367e-02 2.7022753510153890e-05 0.0000000000000000e+00  1.2394114859065130e-05 3.5340369359983789e-02 0.0000000000000000e+00  3.4832085279883830e-02 5.5247771669937314e-04 0.0000000000000000e+00  -4.1495308066115512e-03 2.1817413739915179e-02 0.0000000000000000e+00  0.0000000000000000e+00 0.0000000000000000e+00 0.0000000000000000e+00  0.0000000000000000e+00 0.0000000000000000e+00 0.0000000000000000e+00  0.0000000000000000e+00 0.0000000000000000e+00 0.0000000000000000e+00  -1.1141045795841182e-05 3.5408646242669206e-02 0.0000000000000000e+00  3.0367790152747925e-05 3.5253489651168979e-02 0.0000000000000000e+00  3.9918801133300323e-05 -3.5297824073475398e-02 0.0000000000000000e+00  -3.5210662969620520e-02 -4.2319291073506741e-06 0.0000000000000000e+00  0.0000000000000000e+00 0.0000000000000000e+00 0.0000000000000000e+00  -1.2331240961582375e-05 -3.5372523578772831e-02 0.0000000000000000e+00  0.0000000000000000e+00 0.0000000000000000e+00 0.0000000000000000e+00  -3.1400448299999328e-02 -3.1932175495471086e-05 0.0000000000000000e+00  -6.0055333092212822e-05 -3.5292977398523440e-02 0.0000000000000000e+00  -2.7464181239140232e-03 3.2547068107564664e-02 0.0000000000000000e+00  -4.4431001930936888e-03 3.4397735624154831e-02 0.0000000000000000e+00  -3.5420480273220978e-02 5.0701286768711304e-06 0.0