<?xml version="1.0"?>
<VTKFile type="UnstructuredGrid"  version="0.1"  >
<UnstructuredGrid>
<Piece  NumberOfPoints="644" NumberOfCells="1171">
<Points>
<DataArray  type="Float64"  NumberOfComponents="3"  format="ascii">0 0 0  0 -0.125 0  0.75 -0.125 0  0.75 0.125 0  -0.25 0.125 0  -0.25 0 0  0.25 0.125 0  0.375 -0.125 0  0 0.125 0  0.5 0.125 0  0.1875 -0.125 0  0.5625 -0.125 0  0.75 0 0  0.46875 -0.015625 0  0.625 0.125 0  0.375 0.125 0  0.3125 0 0  0.125 0.125 0  -0.125 0.125 0  -0.125 0 0  0.5967741935483871 -0.0007560483870967735 0  0.13125 -0.00625 0  0.65625 -0.125 0  0.28125 -0.125 0  0.46875 -0.125 0  0.09375 -0.125 0  0.2229910714285714 -0.03549107142857143 0  0.1875 0.06220238095238095 0  0.06846590909090909 0.05653409090909091 0  -0.1875 0 0  -0.1875 0.125 0  -0.25 0.0625 0  -0.0625 0 0  -0.0625 0.125 0  0.6731476608283617 0.04814766082836177 0  0.3950892857142857 0.03683035714285714 0  0.3814682813733228 -0.0436408593133386 0  0.5265477830275794 0.04531577043831568 0  0 -0.0625 0  0.6735842996551862 -0.04034447474138966 0  0.5377722869915849 -0.05132911115007012 0  0.07377717391304348 -0.05339673913043477 0  0.3125 0.125 0  -0.03125 0.0625 0  -0.15625 0.0625 0  0.2604492113802732 0.0520996056901366 0  0.609375 -0.07129927304658745 0  0.4375 0.125 0  0.4602201258948503 0.05034378241161346 0  0.1634747023809524 -0.06368303571428571 0  0.328125 -0.125 0  0.5907625967030323 0.06663889766611106 0  0.2842384453781513 -0.05934086134453782 0  0.0625 0.125 0  0.1875 0.125 0  0.75 -0.0625 0  0.75 0.0625 0  0.6875 0.125 0  0.3229589885296305 0.0625 0  -0.09375 0.0546875 0  0.5625 0.125 0  0.4381665499310926 -0.0703125 0  0.1277056277056277 0.06519209956709957 0  0.703125 -0.125 0  0.05684793646533066 0.0008790522751979946 0  0.234375 -0.125 0  0.2185802661500116 0.01820003131776254 0  0.046875 -0.125 0  0.4909895210567312 -0.07666726731010505 0  0.01960227272727273 0.07613636363636363 0  0.3361839242848742 -0.07211696536534634 0  0.4203106240613507 0.07898344077699948 0  0.5181832815527874 -0.00462995471404825 0  0.1781300488945578 -0.0177032844387755 0  0.208335724914966 -0.08147082270408165 0  0.2664453415860015 -0.0144664297681098 0  0.140625 -0.125 0  0.609375 -0.125 0  -0.203125 0.046875 0  0.421875 -0.125 0  0.515625 -0.125 0  0.1161459396355877 -0.08016572090521226 0  0.4241240234781841 -0.02656385645627401 0  0.6990152989888715 0.004028152182040811 0  0.6271349600702193 0.03591770622006332 0  0.65625 0.09106966987709128 0  0.3688306135475037 0.07722084277935892 0  0.3615043530684892 0.001126737491439954 0  0.7043500051667804 -0.07709062887508528 0  0.2865087753587909 0.08852540574520119 0  0.642008642809217 -0.007299756412976576 0  0.096382315140601 0.02166640604969193 0  0.1559571888228706 0.03078473966087507 0  0.21875 0.09360119047619048 0  0.09336021980537211 0.0931961847510528 0  -0.21484375 0.08984375 0  0.7066562033005191 0.08165620330051912 0  0.53125 0.09114684728100114 0  0.6612522907238644 -0.08192181067729233 0  0.0341767628304146 -0.03597045164766247 0  0.437855124596816 0.01391609555512626 0  0.46875 0.09372499553486191 0  0.15625 0.125 0  0.5670945451787581 0.03056213002492338 0  0.03154432462929641 0.03520131712599316 0  0.75 -0.03125 0  0.3962796537954345 -0.08575509889393504 0  0.2507347151982737 -0.08566060072244897 0  0.4867136744122079 0.02023358791515065 0  0.5577415168021085 -0.008024070318781273 0  0.5784500018343632 -0.04383008313355514 0  0.564692362441531 -0.08327874504394331 0  0.09197640606636842 -0.01794208468343613 0  0 -0.09375 0  0.04158320000659761 -0.08215644999010357 0  0.7129580178731206 0.04184584625576027 0  0.3436134423604678 -0.03368685645682035 0  0.5010015146325735 -0.03929533246717076 0  0.7114052946082949 -0.03254671291982406 0  -0.09375 0.125 0  -0.06571691176470588 0.08432904411764705 0  -0.03125 0.125 0  -0.1217830882352941 0.08432904411764705 0  -0.15625 0.125 0  0.3554420797490654 0.040110141768245 0  0.3046875 -0.09437275147850442 0  0.1302777686441408 -0.04455238740088928 0  0.4947674314313986 0.06608008820160668 0  0.08016378710460952 -0.09020248830948892 0  0.5270554875622931 -0.08872902225664492 0  0.34375 0.125 0  0.2239746056901366 0.05715099332125876 0  0.2807990880146111 0.02037960310126816 0  0.6150722917361382 -0.03388456855156757 0  0.171875 0.09360119047619048 0  0.6261821053804955 0.07168170434847208 0  -0.005249017531721824 0.03643799123413909 0  -0.01187225073313782 0.0918736253665689 0  -0.171875 0.03125 0  -0.171875 0.09375 0  -0.1276041666666667 0.03776041666666667 0  -0.05989583333333334 0.03776041666666666 0  0.3984484315691283 2.275111773493432e-05 0  0.05341331999531854 0.08971533456013525 0  0.2526342273228733 0.09112790453760526 0  -0.03125 0 0  0.5554921466391664 0.0655028707731679 0  0.59375 0.125 0  0.6328125 -0.1004488789019824 0  0.6393848755581191 -0.05672787353597727 0  0.427257382977709 0.04550205202796606 0  -0.21875 0 0  -0.25 0.03125 0  0.75 -0.09375 0  0.328125 0.09548962360390409 0  0.1776042463860544 -0.09351207305839002 0  0.1922595928996599 -0.04753232178287981 0  0.2516812450958099 -0.05238131882786967 0  0.2961953058028871 -0.02863508555879538 0  0.36301518069135 -0.09310985033327854 0  0.467317403478019 -0.05071933221457883 0  0.5722377297896383 0.09369177044135779 0  0.40625 0.125 0  0.03125 0.125 0  0.1853427875346283 0.01490866823171472 0  0.6555876927477673 0.0215417849934678 0  0.2917089747986452 0.05727050343738928 0  0.3245861398375342 0.03010258276165106 0  -0.09375 0 0  0.1461566318926205 -0.09014732188201922 0  0.4107552663147516 -0.05498300745042242 0  0.4453125 -0.125 0  0.462263122098637 -0.09273222526565958 0  0.46875 0.125 0  0 -0.03125 0  0.53125 0.125 0  -0.25 0.09375 0  -0.15625 0 0  -0.21875 0.125 0  0.21875 0.125 0  0.28125 0.125 0  0.65625 0.125 0  0.09375 0.125 0  0.75 0.09375 0  0.71875 0.125 0  0.75 0.03125 0  0.6047679727514957 0.09517899798722938 0  0.2495691018938966 0.0227317988987822 0  0.592626441997103 -0.09814963652329373 0  0.390625 0.09869457032333812 0  0.5974396868261521 0.0295971384159882 0  0.1265664981591327 0.02363342121769104 0  0.5399396411225064 0.01671763625700309 0  0.6851624032919814 -0.1005703636696416 0  0.1233894968914846 0.09496199337272285 0  0.09770586213419111 0.06346248512933658 0  0.1574589544128558 0.06082005146058027 0  0.4982889720772516 0.09545964995492966 0  0.3180384062680456 -0.04867576302528355 0  0.6721880206389501 -0.01007036798977596 0  0.2362028418845422 -0.007378975972853533 0  0.2065301203457968 -0.008961890718520972 0  0.7255830088033308 0.015625 0  0.1028583558564444 -0.05428252412442389 0  0.4237709757794078 -0.09579441840228067 0  0.02833264973724107 0.006345054366644077 0  0.05954527438236436 0.02935612726167008 0  0.06483429644678235 -0.02640801777592229 0  -0.1841517857142857 0.06808035714285715 0  0.0234375 -0.125 0  0.721308900904175 -0.1014946013562625 0  -0.09375 0.09500340125456963 0  0.1512830204296897 -0.02592203192679778 0  -0.08626302083333334 0.02734375 0  -0.0327784317454073 0.02858636930808182 0  0.2765622560665524 -0.09713130729112504 0  -0.03886473080776428 0.08860198270291089 0  0.4921875 -0.125 0  0.3547331147757543 0.1002930078354661 0  0.1998434718302167 0.03794330211166234 0  0.3578827147668418 -0.05637868187222075 0  0.3365946494122121 -0.09923512942325811 0  0.1601331260783671 0.003380660928808017 0  -0.1448145000924898 0.09975100004624492 0  0.5136894479138476 -0.06272152848340332 0  0.01273510397227407 0.1017451804518795 0  -0.005005081978139155 0.06626480855105303 0  0.04163484714572872 0.06035450368869399 0  0.6468705603588758 0.05433821122116762 0  0.2310292155242113 -0.06844703501105656 0  0.6308539302351512 0.09744582121500756 0  0.3950019442892575 0.06550446464267988 0  0.6794054530034779 0.07539841112540302 0  0.69046663421068 0.02865895927174738 0  0.1171875 -0.125 0  0.2279833003138575 -0.09927056046787702 0  0.5483844093306666 -0.103340026543618 0  0.5364080143377401 -0.02444328441693465 0  0.4944271889894072 -0.01444606350414915 0  0.5135265050691424 0.02182319583473962 0  0.4478955633334156 0.0752963158071624 0  0.4442224222298219 0.1004670376363804 0  0.2578125 -0.125 0  0.7301558916972241 -0.015625 0  0.50390625 -0.1013703375086714 0  0.6882333003586726 0.09941905757483911 0  0.1026939603036181 -0.1014569215050701 0  0.6487748941738865 -0.03244262244825829 0  0.4492091812002485 -0.03240372456844211 0  -0.22265625 0.02734375 0  -0.2275390625 0.0517578125 0  -0.1953125 0.0234375 0  0.4632566271050266 0.009555777532983815 0  0.1102037914624436 0.0421477202532108 0  0.3368379505846636 0.007705925443630472 0  0.366537729688258 -0.02346386345929231 0  0.3739884998230111 0.02303120707358704 0  0.7312058356813337 -0.046875 0  0.1640625 -0.125 0  0.4157793197150594 0.02408006545010536 0  0.1473666617578561 0.08481871951736568 0  0.7296669293380219 -0.07759185593329317 0  0.3759218402095064 -0.0725822305145412 0  0.1395103821816329 -0.06689949192047177 0  0.2717039029199983 -0.03834614056722262 0  0.2889427018096866 -0.005546030078419239 0  0.186519315817845 -0.07102815581217606 0  0.1994206554831754 -0.1039547399502956 0  0.3438852619618057 0.0761223470395624 0  0.0703125 -0.125 0  0.05758909936942101 -0.1019280712486612 0  0.4144355411988755 0.1023447072982783 0  0.5025370981067596 0.04326926982812 0  0.01366453101600835 0.05119771488459311 0  0.6958914534776515 -0.05292018300834484 0  0.4458161378010781 -0.008683957110931652 0  0.3206809848567535 -0.02387136177413467 0  0.6213876733806998 0.009771537349533888 0  0.6084666862587959 0.05070752883096079 0  0.3123595177961023 -0.07181541520001763 0  0.2460348927628688 -0.02916031899037171 0  0.6950268692496048 0.05746726250188721 0  -0.1100968755037073 0.01999780887330754 0  -0.1481342751141553 0.02358911244292237 0  0.7310005859028121 0.078125 0  0.7271594566683963 0.1021594566683963 0  0.01837600285648185 -0.015625 0  0.3763113250135252 0.05111034618432117 0  -0.06985294117647059 0.06016390931372548 0  -0.1317401960784314 0.06192555147058823 0  0.5390625 -0
[...]
<PointData  Vectors="f_30"> 
<DataArray  type="Float64"  Name="f_30"  NumberOfComponents="3" format="ascii">0.0000000000000000e+00 0.0000000000000000e+00 0.0000000000000000e+00  0.0000000000000000e+00 0.0000000000000000e+00 0.0000000000000000e+00  0.0000000000000000e+00 0.0000000000000000e+00 0.0000000000000000e+00  0.0000000000000000e+00 0.0000000000000000e+00 0.0000000000000000e+00  0.0000000000000000e+00 0.0000000000000000e+00 0.0000000000000000e+00  0.0000000000000000e+00 0.0000000000000000e+00 0.0000000000000000e+00  0.0000000000000000e+00 0.0000000000000000e+00 0.0000000000000000e+00  0.0000000000000000e+00 0.0000000000000000e+00 0.0000000000000000e+00  0.0000000000000000e+00 0.0000000000000000e+00 0.0000000000000000e+00  0.0000000000000000e+00 0.0000000000000000e+00 0.0000000000000000e+00  0.0000000000000000e+00 0.0000000000000000e+00 0.0000000000000000e+00  0.0000000000000000e+00 0.0000000000000000e+00 0.0000000000000000e+00  4.9999999851867795e-02 -3.6350091806876207e-07 0.0000000000000000e+00  4.9237324088635653e-02 7.1359139981345016e-05 0.0000000000000000e+00  0.0000000000000000e+00 0.0000000000000000e+00 0.0000000000000000e+00  0.0000000000000000e+00 0.0000000000000000e+00 0.0000000000000000e+00  5.0004889209227264e-02 -1.8857750163257092e-04 0.0000000000000000e+00  0.0000000000000000e+00 0.0000000000000000e+00 0.0000000000000000e+00  0.0000000000000000e+00 0.0000000000000000e+00 0.0000000000000000e+00  0.0000000000000000e+00 0.0000000000000000e+00 0.0000000000000000e+00  4.9998205049472187e-02 6.6489206513317384e-06 0.0000000000000000e+00  4.7465270521456646e-02 -1.5003787828059584e-02 0.0000000000000000e+00  0.0000000000000000e+00 0.0000000000000000e+00 0.0000000000000000e+00  0.0000000000000000e+00 0.0000000000000000e+00 0.0000000000000000e+00  0.0000000000000000e+00 0.0000000000000000e+00 0.0000000000000000e+00  0.0000000000000000e+00 0.0000000000000000e+00 0.0000000000000000e+00  4.4903812561471829e-02 -2.6323864201293541e-03 0.0000000000000000e+00  4.1039258691242912e-02 -3.4747544460648747e-03 0.0000000000000000e+00  6.8013987831368944e-02 -2.0006198345518266e-02 0.0000000000000000e+00  0.0000000000000000e+00 0.0000000000000000e+00 0.0000000000000000e+00  0.0000000000000000e+00 0.0000000000000000e+00 0.0000000000000000e+00  1.0000000000000001e-01 0.0000000000000000e+00 0.0000000000000000e+00  0.0000000000000000e+00 0.0000000000000000e+00 0.0000000000000000e+00  0.0000000000000000e+00 0.0000000000000000e+00 0.0000000000000000e+00  4.2582808151103511e-02 -8.8386133115874936e-10 0.0000000000000000e+00  4.5552618110062379e-02 1.1333323678349266e-04 0.0000000000000000e+00  4.4042992088565602e-02 1.0479261729993984e-04 0.0000000000000000e+00  4.3414414110325358e-02 2.2105013673921224e-05 0.0000000000000000e+00  0.0000000000000000e+00 0.0000000000000000e+00 0.0000000000000000e+00  4.4790540833303326e-02 2.2758407917555817e-08 0.0000000000000000e+00  4.1580553302398258e-02 1.6199397855326472e-05 0.0000000000000000e+00  1.6757122078816775e-02 -1.2213382196585033e-02 0.0000000000000000e+00  0.0000000000000000e+00 0.0000000000000000e+00 0.0000000000000000e+00  9.9305183314325390e-02 -4.8302611801048067e-03 0.0000000000000000e+00  1.0000050658617017e-01 5.0252904649461874e-05 0.0000000000000000e+00  4.1605166841971929e-02 -8.1128637573145369e-04 0.0000000000000000e+00  3.3732674684899246e-02 1.6730690605228289e-06 0.0000000000000000e+00  0.0000000000000000e+00 0.0000000000000000e+00 0.0000000000000000e+00  4.1834215070090247e-02 5.6547373770750644e-05 0.0000000000000000e+00  3.1369965598521767e-02 -4.6354932302184165e-03 0.0000000000000000e+00  0.0000000000000000e+00 0.0000000000000000e+00 0.0000000000000000e+00  3.5787914572929298e-02 3.3926318836508382e-06 0.0000000000000000e+00  3.8751680179007750e-02 -3.2520419610277676e-04 0.0000000000000000e+00  0.0000000000000000e+00 0.0000000000000000e+00 0.0000000000000000e+00  0.0000000000000000e+00 0.0000000000000000e+00 0.0000000000000000e+00  3.7498985443011140e-02 -2.4026805952504811e-07 0.0000000000000000e+00  3.7501017855161980e-02 -2.3954845660911067e-07 0.0000000000000000e+00  0.0000000000000000e+00 0.0000000000000000e+00 0.0000000000000000e+00  3.7298277236986047e-02 -1.1286244041253866e-05 0.0000000000000000e+00  9.8426268109031934e-02 -5.1459084718261191e-05 0.0000000000000000e+00  0.0000000000000000e+00 0.0000000000000000e+00 0.0000000000000000e+00  3.4264434986903194e-02 4.7852124868045844e-05 0.0000000000000000e+00  4.8128570931306368e-02 -8.7313884214255000e-03 0.0000000000000000e+00  0.0000000000000000e+00 0.0000000000000000e+00 0.0000000000000000e+00  4.2632030156395023e-02 -3.0533448633344215e-02 0.0000000000000000e+00  0.0000000000000000e+00 0.0000000000000000e+00 0.0000000000000000e+00  4.9644623230555074e-02 -3.3946423192380607e-03 0.0000000000000000e+00  0.0000000000000000e+00 0.0000000000000000e+00 0.0000000000000000e+00  3.1223274937068324e-02 1.9570628197726819e-05 0.0000000000000000e+00  8.1161377396796214e-02 -1.1855082878555660e-02 0.0000000000000000e+00  3.3578140213986599e-02 2.7809165423616080e-05 0.0000000000000000e+00  2.9931219666766873e-02 4.4057717976311246e-05 0.0000000000000000e+00  4.9933617581074063e-02 3.5175285062490737e-05 0.0000000000000000e+00  4.7108489402189202e-02 -7.1436486327048502e-03 0.0000000000000000e+00  2.7073386954208752e-02 -1.2116928440669759e-03 0.0000000000000000e+00  4.9243825690738242e-02 -1.0882613283902602e-03 0.0000000000000000e+00  0.0000000000000000e+00 0.0000000000000000e+00 0.0000000000000000e+00  0.0000000000000000e+00 0.0000000000000000e+00 0.0000000000000000e+00  9.3746053605343146e-02 9.9293411305657687e-06 0.0000000000000000e+00  0.0000000000000000e+00 0.0000000000000000e+00 0.0000000000000000e+00  0.0000000000000000e+00 0.0000000000000000e+00 0.0000000000000000e+00  1.7493240314641077e-02 -4.8029495243278467e-03 0.0000000000000000e+00  4.7800402395499084e-02 1.0621434447236931e-04 0.0000000000000000e+00  4.9948178620657556e-02 -2.7970034595000471e-07 0.0000000000000000e+00  4.5871890741271515e-02 2.0715022246361408e-06 0.0000000000000000e+00  2.3461380091210824e-02 1.1129250463123139e-08 0.0000000000000000e+00  3.0727378882177997e-02 5.6170436265157889e-05 0.0000000000000000e+00  4.9992687036314418e-02 1.0431985093501419e-04 0.0000000000000000e+00  3.0981307401909880e-02 -1.8484545943951934e-07 0.0000000000000000e+00  2.4786204856663212e-02 -8.6408842734988432e-05 0.0000000000000000e+00  4.9829390532021109e-02 1.4667488547876359e-06 0.0000000000000000e+00  5.6069644451099271e-02 -2.2669554745275124e-02 0.0000000000000000e+00  5.1426456296620168e-02 -9.7074657074508758e-03 0.0000000000000000e+00  2.2868432755988408e-02 -5.4122832071909889e-04 0.0000000000000000e+00  3.8812946350256089e-02 -4.8621434693670628e-03 0.0000000000000000e+00  8.0862279745283913e-02 4.3435088949989181e-06 0.0000000000000000e+00  2.8664416441737117e-02 -1.6548853594382170e-07 0.0000000000000000e+00  2.3405103648284239e-02 5.1384668507067641e-06 0.0000000000000000e+00  2.8522966713471504e-02 7.7197322007234138e-09 0.0000000000000000e+00  8.2110568483316181e-03 -1.2919965746237999e-02 0.0000000000000000e+00  4.9353807333199849e-02 1.0135171629472431e-04 0.0000000000000000e+00  2.1850822993870023e-02 1.3060626279250218e-05 0.0000000000000000e+00  0.0000000000000000e+00 0.0000000000000000e+00 0.0000000000000000e+00  4.7007312775344534e-02 1.1738622062551228e-05 0.0000000000000000e+00  7.6148050119305463e-02 -3.0132833904285942e-02 0.0000000000000000e+00  4.6874336110409483e-02 -3.3176920882764246e-07 0.0000000000000000e+00  2.6603346737924333e-02 4.0417428992977565e-05 0.0000000000000000e+00  2.6240373960206627e-02 -3.7139400036330481e-04 0.0000000000000000e+00  4.8672639292556504e-02 5.4638107337867904e-05 0.0000000000000000e+00  4.9795413012335962e-02 1.6496977540089083e-05 0.0000000000000000e+00  4.3855718094112400e-02 7.6179075692041165e-06 0.0000000000000000e+00  2.7811043751976173e-02 3.6301865860349967e-06 0.0000000000000000e+00  3.7959717629348660e-02 -2.0997959027567997e-02 0.0000000000000000e+00  0.0000000000000000e+00 0.0000000000000000e+00 0.0000000000000000e+00  2.5049141997001870e-03 -2.6228876102169485e-03 0.0000000000000000e+00  4.4397490915498265e-02 -3.1235930147765319e-07 0.0000000000000000e+00  4.6500919901947553e-02 4.7733291384980799e-05 0.0000000000000000e+00  4.5081639143125657e-02 3.7093980580855059e-05 0.0000000000000000e+00  4.6609515393555956e-02 -3.2661233616933887e-07 0.0000000000000000e+00  0.0000000000000000e+00 0.0000000000000000e+00 0.0000000000000000e+00  8.7615432812050142e-02 -5.8856037137246828e-04 0.0000000000000000e+00  0.0000000000000000e+00 0.0000000000000000e+00 0.0000000000000000e+00  8.7877250727930678e-02 5.8422721425846149e-05 0.0000000000000000e+00  0.0000000000000000e+00 0.0000000000000000e+00 0.0000000000000000e+00  4.4702156615723430e-02 8.2464848589265766e-05 0.0000000000000000e+00  2.1689872941269839e-02 -1.9223214419893674e-05 0.0000000000000000e+00  3.3989669754706256e-02 -1.0438800366089195e-02 0.0000000000000000e+00  3.5995371263864942e-02 2.5183921625640993e-05 0.0000000000000000e+00  7.5095731287600906e-03 -3.3293799615212415e-03 0.0000000000000000e+00  2.4818856281695792e-02 6.3422061573636840e-06 0.0000000000000000e+00  0.0000000000000000e+00 0.0000000000000000e+00 0.0000000000000000e+00  4.0820218408262124e-02 -1.8306759720491061e-03 0.0000000000000000e+00  4.8721073913002254e-02 -6.7306275416480308e-04 0.0000000000000000e+00  4.6326160440493487e-02 3.1994123970129814e-06 0.0000000000000000e+00  2.5463151986312361e-02 -1.4476074065047917e-03 0.0000000000000000e+00  3.3558163126088718e-02 9.0793812414169362e-07 0.0000000000000000e+00  8.6625373419622287e-02 -1.4987865355788022e-02 0.0000000000000000e+00  7.3045909377894250e-02 -3.6725636669002197e-03 0.0000000000000000e+00  7.4978140607105961e-02 1.8181250802991393e-05 0.0000000000000000e+00  7.5021663428441243e-02 1.7791135302529901e-05 0.0000000000000000e+00  8.4257826931866786e-02 6.1872994074125092e-05 0.0000000000000000e+00  8.4696871279911046e-02 -8.7430466014325474e-04 0.0000000000000000e+00  5.0000315704533740e-02 1.3198006231651848e-04 0.0000000000000000e+00  5.5259584853884422e-02 -7.6757650747657164e-03 0.0000000000000000e+00  2.3597476805019224e-02 -2.5737688090590039e-04 0.0000000000000000e+00  0.0000000000000000e+00 0.0000000000000000e+00 0.0000000000000000e+00  3.6262859571979826e-02 8.2180629682722470e-06 0.0000000000000000e+00  0.0000000000000000e+00 0.0000000000000000e+00 0.0000000000000000e+00  1.7711178223210861e-02 1.1465277643774924e-07 0.0000000000000000e+00  3.9701477167122801e-02 8.0986320745678349e-07 0.0000000000000000e+00  4.3289055908026647e-02 8.6056965870042249e-05 0.0000000000000000e+00  0.0000000000000000e+00 0.0000000000000000e+00 0.0000000000000000e+00  7.5000000000000011e-02 0.0000000000000000e+00 0.0000000000000000e+00  2.1874199196129155e-02 -1.0698909176780379e-07 0.0000000000000000e+00  2.0616537397607059e-02 1.3989656947263603e-05 0.0000000000000000e+00  1.9069311375343481e-02 -1.1963237294788061e-03 0.0000000000000000e+00  3.9950011678559744e-02 -4.0377872944539778e-03 0.0000000000000000e+00  4.0768046808002084e-02 -1.0338776499817725e-03 0.0000000000000000e+00  4.7410314910700399e-02 -3.5749127994267699e-04 0.0000000000000000e+00  2.2431214551787409e-02 3.0059519662788554e-05 0.0000000000000000e+00  4.1817457509434761e-02 5.1325833990184544e-05 0.0000000000000000e+00  2.1907714950952620e-02 1.7634271090951575e-06 0.0000000000000000e+00  0.0000000000000000e+00 0.0000000000000000e+00 0.0000000000000000e+00  0.0000000000000000e+00 0.0000000000000000e+00 0.0000000000000000e+00  5.0533255962512590e-02 -6.5472605774851500e-03 0.0000000000000000e+00  4.8515460972985279e-02 6.6135228023977527e-07 0.0000000000000000e+00  3.9431929616660588e-02 -2.4561649929566865e-04 0.0000000000000000e+00  4.6996126172578791e-02 -4.9105473710621786e-05 0.0000000000000000e+00  0.0000000000000000e+00 0.0000000000000000e+00 0.0000000000000000e+00  1.7834225932478888e-02 -2.2860672619002733e-03 0.0000000000000000e+00  4.0443006239640256e-02 8.3729172868108551e-05 0.0000000000000000e+00  0.0000000000000000e+00 0.0000000000000000e+00 0.0000000000000000e+00  2.2527440582182361e-02 1.5112259907147025e-05 0.0000000000000000e+00  0.0000000000000000e+00 0.0000000000000000e+00 0.0000000000000000e+00  0.0000000000000000e+00 0.0000000000000000e+00 0.0000000000000000e+00  0.0000000000000000e+00 0.0000000000000000e+00 0.0000000000000000e+00  7.5000000000000011e-02 0.0000000000000000e+00 0.0000000000000000e+00  0.0000000000000000e+00 0.0000000000000000e+00 0.0000000000000000e+00  0.0000000000000000e+00 0.0000000000000000e+00 0.0000000000000000e+00  0.0000000000000000e+00 0.0000000000000000e+00 0.0000000000000000e+00  0.0000000000000000e+00 0.0000000000000000e+00 0.0000000000000000e+00  0.0000000000000000e+00 0.0000000000000000e+00 0.0000000000000000e+00  0.0000000000000000e+00 0.0000000000000000e+00 0.0000000000000000e+00  2.1875803748747053e-02 -1.0723172273660550e-07 0.0000000000000000e+00  0.0000000000000000e+00 0.0000000000000000e+00 0.0000000000000000e+00  4.6875668146219136e-02 -3.3054468927827929e-07 0.0000000000000000e+00  2.1011256857217830e-02 6.1968250630360523e-07 0.0000000000000000e+00  4.8669175889300212e-02 -1.6189714881884869e-03 0.0000000000000000e+00  1.9173578136944033e-02 7.3507909165936869e-07 0.0000000000000000e+00  1.8713057557394688e-02 2.1635160388720594e-05 0.0000000000000000e+00  4.7195719653758052e-02 5.6835939477557773e-06 0.0000000000000000e+00  5.3831485874445154e-02 -1.5640652640095929e-02 0.0000000000000000e+00  4.9100961757996268e-02 2.2830050884573105e-05 0.0000000000000000e+00  1.7632963239911155e-02 -6.4960566114004172e-08 0.0000000000000000e+00  3.0611057582345939e-02 -2.9818588478344650e-03 0.0000000000000000e+00  5.6367092247075826e-02 -1.3314538418313936e-02 0.0000000000000000e+00  4.4770149612250003e-02 -6.1090951221246205e-03 0.0000000000000000e+00  2.0819424835697410e-02 7.3662223067028723e-06 0.0000000000000000e+00  4.2573452169884188e-02 -6.7793568344222020e-05 0.0000000000000000e+00  4.9675243941480873e-02 1.5345417658881884e-07 0.0000000000000000e+00  4.9662496907698084e-02 -2.3992359761628810e-03 0.0000000000000000e+00  4.9238552231656976e-02 -4.4614649403470720e-03 0.0000000000000000e+00  4.9219127812867032e-02 -3.6396994891046133e-07 0.0000000000000000e+00  2.4446154997110735e-02 -1.1049461447606806e-02 0.0000000000000000e+00  2.0714922683439892e-02 2.0114303295802072e-05 0.0000000000000000e+00  4.1996674383160730e-02 -3.3130545381480969e-02 0.0000000000000000e+00  6.4524143517848839e-02 -2.9900912663515876e-02 0.0000000000000000e+00  2.5626625481070243e-02 -2.1346985465843498e-02 0.0000000000000000e+00  9.9206393492622127e-02 2.2052452468141562e-05 0.0000000000000000e+00  0.0000000000000000e+00 0.0000000000000000e+00 0.0000000000000000e+00  1.7035532482457663e-02 -6.9132820732054124e-08 0.0000000000000000e+00  7.3061115476438038e-02 -1.8299311887782926e-05 0.0000000000000000e+00  4.3251006765848928e-02 -1.0130132520369692e-02 0.0000000000000000e+00  6.8251621148587682e-02 -3.0553135544718099e-05 0.0000000000000000e+00  7.2960154375805150e-02 -3.0598551977109988e-03 0.0000000000000000e+00  1.9893680694385327e-02 -8.0918119183285393e-05 0.0000000000000000e+00  8.1142257776166404e-02 -1.8264827178218457e-03 0.0000000000000000e+00  0.0000000000000000e+00 0.0000000000000000e+00 0.0000000000000000e+00  1.7650280143759665e-02 1.9915087828476891e-05 0.0000000000000000e+00  4.7470454152767808e-02 -4.1716705834952700e-03 0.0000000000000000e+00  4.0017369860497219e-02 7.3288392537365941e-05 0.0000000000000000e+00  1.8670818116862640e-02 1.5080638561469824e-05 0.0000000000000000e+00  5.0214959985161421e-02 -1.0162118620547292e-02 0.0000000000000000e+00  6.4529135323231762e-02 2.6344041411869506e-05 0.0000000000000000e+00  3.7432390431700713e-02 1.9934107323613253e-05 0.0000000000000000e+00  5.1624405285783818e-02 -3.1091131716178980e-03 0.0000000000000000e+00  9.4737129747806015e-02 -1.0423647393504751e-02 0.0000000000000000e+00  7.8730427740320422e-02 -2.0306771193275914e-02 0.0000000000000000e+00  4.0552423192896286e-02 5.8240132072168769e-07 0.0000000000000000e+00  3.4048072341881619e-02 -1.1603011858930040e-03 0.0000000000000000e+00  1.9614688787574570e-02 1.6553159604145836e-07 0.0000000000000000e+00  3.6120497027945488e-02 7.4702583999848810e-05 0.0000000000000000e+00  3.1809538554966418e-02 -1.1496664406589410e-07 0.0000000000000000e+00  4.7372422016069907e-02 -2.0043187183762936e-07 0.0000000000000000e+00  0.0000000000000000e+00 0.0000000000000000e+00 0.0000000000000000e+00  1.7943635618650616e-02 -2.9714735100110469e-04 0.0000000000000000e+00  1.5830564813073822e-02 1.5328054842447266e-06 0.0000000000000000e+00  4.8095307207293242e-02 2.3247307268021881e-05 0.0000000000000000e+00  4.9343108112589996e-02 5.0164421192055628e-05 0.0000000000000000e+00  4.8465028728291969e-02 3.5604762371105257e-05 0.0000000000000000e+00  3.1785761824488890e-02 3.7299718126937476e-05 0.0000000000000000e+00  1.7649557739799079e-02 1.1692234730759118e-05 0.0000000000000000e+00  0.0000000000000000e+00 0.0000000000000000e+00 0.0000000000000000e+00  4.9218378822348252e-02 -3.6264950965973215e-07 0.0000000000000000e+00  1.7131860136661872e-02 4.4551482377452072e-06 0.0000000000000000e+00  1.8371703934035512e-02 -6.9848114503940976e-08 0.0000000000000000e+00  7.7226451743543402e-03 -1.6111031423170763e-03 0.0000000000000000e+00  4.6631378845941152e-02 8.4785190893238538e-07 0.0000000000000000e+00  4.6688859313569975e-02 8.0297161967180750e-05 0.0000000000000000e+00  6.8357721058036988e-02 2.0068709603714675e-06 0.0000000000000000e+00  9.7045234368256142e-02 3.6820599926518156e-06 0.0000000000000000e+00  6.0929797642413706e-02 5.1145099673854645e-06 0.0000000000000000e+00  4.9695217451067031e-02 7.8050687715408519e-05 0.0000000000000000e+00  5.6947583172632502e-02 -1.6465292034135572e-02 0.0000000000000000e+00  4.9781651189081511e-02 1.3127657778571676e-05 0.0000000000000000e+00  4.8328206318205134e-02 1.0823623365641569e-04 0.0000000000000000e+00  4.8219230740029692e-02 1.1856314466356838e-04 0.0000000000000000e+00  4.2967798461959847e-02 -3.0171113730889175e-07 0.0000000000000000e+00  0.0000000000000000e+00 0.0000000000000000e+00 0.0000000000000000e+00  4.8085317626069414e-02 1.1472301676576595e-04 0.0000000000000000e+00  3.4119234343427098e-02 -3.4435984142271322e-03 0.0000000000000000e+00  3.0733329359412458e-02 -1.8367077767367727e-07 0.0000000000000000e+00  3.3321844034586920e-02 6.3622151684619612e-05 0.0000000000000000e+00  2.6810099587975422e-02 -5.8603497636524936e-03 0.0000000000000000e+00  4.5162657801900069e-02 -7.4689834061506780e-04 0.0000000000000000e+00  4.9905488437431457e-02 -5.4821212856212456e-04 0.0000000000000000e+00  3.0530967915930411e-02 -2.6264127498118101e-03 0.0000000000000000e+00  1.4262438555587930e-02 -3.7602522857462824e-04 0.0000000000000000e+00  3.1235592578224211e-02 4.1832822657897596e-05 0.0000000000000000e+00  0.0000000000000000e+00 0.0000000000000000e+00 0.0000000000000000e+00  2.0941315097067355e-03 -1.1675722686743794e-03 0.0000000000000000e+00  1.6405123070417339e-02 1.4008211236140940e-05 0.0000000000000000e+00  4.3985343700730602e-02 3.4390332120991165e-05 0.0000000000000000e+00  9.0435700873146160e-02 -2.0216656304725335e-02 0.0000000000000000e+00  4.1037134903186820e-02 -2.3428464928582228e-07 0.0000000000000000e+00  4.9773723409464316e-02 9.5147771388026211e-05 0.0000000000000000e+00  4.8259174768564124e-02 -9.0755501434050011e-05 0.0000000000000000e+00  4.9694410674410841e-02 3.1687455469167667e-06 0.0000000000000000e+00  4.1771433380028450e-02 3.0081661149233476e-06 0.0000000000000000e+00  3.3693504678710295e-02 -4.4878540972211993e-05 0.0000000000000000e+00  4.6851008517036559e-02 -1.6712589917954807e-03 0.0000000000000000e+00  3.9433218920873994e-02 -2.2357018688308764e-07 0.0000000000000000e+00  5.3635511253037178e-02 3.145986757609890